/*--------------------------------*- C++ -*----------------------------------*\
| =========                 |                                                 |
| \\      /  F ield         | OpenFOAM: The Open Source CFD Toolbox           |
|  \\    /   O peration     | Version:  2206                                  |
|   \\  /    A nd           | Website:  www.openfoam.com                      |
|    \\/     M anipulation  |                                                 |
\*---------------------------------------------------------------------------*/
FoamFile
{
    version     2.0;
    format      ascii;
    arch        "LSB;label=32;scalar=64";
    class       volScalarField;
    location    "239";
    object      nut;
}
// * * * * * * * * * * * * * * * * * * * * * * * * * * * * * * * * * * * * * //

dimensions      [0 2 -1 0 0 0 0];

internalField   nonuniform List<scalar> 
2283
(
0.174344
0.230524
0.00357723
0.00438179
0.007231
0.00818032
0.129687
0.132261
0.00147911
0.00479819
0.00356806
0.0972378
0.00303109
0.0601686
0.0887787
0.12124
0.12035
0.0443989
0.182685
0.00513932
0.0130093
0.0115967
0.140029
0.139913
0.161803
0.211273
0.135228
0.0295387
0.135206
0.00215356
0.00129047
0.130957
0.126543
0.140708
0.140203
0.126866
0.120875
0.140799
0.140622
0.296512
0.225618
0.0514952
0.00794025
0.00894588
0.032612
0.0263054
0.0100484
0.023811
0.01922
0.137924
0.01285
0.133016
0.00486843
0.023861
0.1006
0.0131666
0.0393865
0.0583202
0.00235966
0.10296
0.0512533
0.0742386
0.0133125
0.046296
0.00106321
0.161977
0.217776
0.0534971
0.00616964
0.00993728
0.0508898
0.00470004
0.096108
0.192041
0.0730981
0.00641624
0.141522
0.139587
0.140536
0.141052
0.0775149
0.101623
0.0235025
0.00407921
0.00136611
0.0039238
0.00986802
0.0313066
0.0111958
0.0127632
0.0425438
0.00526997
0.0268413
0.0803485
0.0608667
0.14168
0.105388
0.0070391
0.145086
0.0050315
0.0960879
0.105987
0.292045
0.0116709
0.00231711
0.00302671
0.353836
0.15372
0.00359587
0.00247452
0.144261
0.132943
0.132793
0.0668066
0.0536105
0.00312186
0.00626009
0.155315
0.00801602
0.0386736
0.0787498
0.0123433
0.136901
0.136549
0.00118286
0.00922574
0.0421305
0.0118722
0.0107657
0.013868
0.0308137
0.00364783
0.00251551
0.0971548
0.0367265
0.0224024
0.113595
0.112994
0.00817786
0.00706222
0.0472947
0.00971261
0.0144363
0.042087
0.0598143
0.00200776
0.0505318
0.14043
0.140063
0.0467435
0.14999
0.0675466
0.105442
0.0968417
0.0100113
0.00947449
0.00506268
0.00437281
0.0358029
0.00775383
0.0519594
0.193879
0.047992
0.0156332
0.123287
0.023655
0.128156
0.00926027
0.13275
0.0455672
0.00245768
0.00143285
0.00278345
0.00718622
0.120769
0.00552483
0.034491
0.0294932
0.00607042
0.00563027
0.0240972
0.0138946
0.00511655
0.00275034
0.0220618
0.0176484
0.0018626
0.00771399
0.0156707
0.00357554
0.0036697
0.138591
0.11349
0.0543747
0.028155
0.0341751
0.055422
0.0611641
0.0192152
0.0180509
0.0433975
0.047953
0.0035292
0.0200214
0.00213684
0.0151841
0.0101241
0.0196645
0.0612786
0.0210599
0.139453
0.140378
0.00191497
0.0351985
0.0141931
0.039315
0.0067062
0.038102
0.0236501
0.00159667
0.00203496
0.0831745
0.00240439
0.0127878
0.00668687
0.00189691
0.00583981
0.00918865
0.00470326
0.128875
0.00812305
0.00253507
0.00336695
0.0231949
0.0270588
0.0378909
0.00220175
0.0981509
0.00208703
0.128178
0.0789676
0.033252
0.00146933
0.124471
0.00948607
0.103671
0.0104689
0.0112089
0.079817
0.124574
0.166765
0.00239705
0.00212877
0.0718684
0.00135764
0.0160568
0.00203155
0.0820083
0.10049
0.0128757
0.0116015
0.0867795
0.0169209
0.00209489
0.00230541
0.0204363
0.0697252
0.0716197
0.00845426
0.0769416
0.0826303
0.0751359
0.0744263
0.0126263
0.054577
0.0190318
0.00670349
0.043166
0.0409116
0.0110622
0.040112
0.0310169
0.0134925
0.00146938
0.0104907
0.0900569
0.054201
0.0131261
0.0124139
0.0252178
0.0265695
0.105625
0.0491438
0.00644156
0.00209962
0.00354456
0.0024991
0.00873712
0.0117689
0.0099906
0.00575522
0.0122124
0.0120654
0.0687537
0.0950226
0.0511158
0.0743419
0.0525933
0.022236
0.0215206
0.0364493
0.160365
0.0259416
0.079455
0.0621146
0.0235627
0.0268119
0.0599587
0.151974
0.0195545
0.0191809
0.0176692
0.193505
0.0155793
0.0175663
0.014967
0.0229388
0.0257222
0.0667285
0.00121103
0.05035
0.0230409
0.0370957
0.0340722
0.142204
0.140524
0.0310284
0.0144048
0.0772358
0.0197885
0.114406
0.0699986
0.00344599
0.00166715
0.0537994
0.0190057
0.00182858
0.0207421
0.00104029
0.0091012
0.00984589
0.00658652
0.0498753
0.10616
0.140585
0.00770406
0.0947991
0.0164447
0.0153343
0.0202438
0.0225112
0.00662436
0.00685861
0.00783775
0.128294
0.0207969
0.0493126
0.00990112
0.00696709
0.00475691
0.00329955
0.020058
0.129938
0.0242518
0.0217455
0.137744
0.126625
0.00722163
0.00720875
0.00822565
0.0061125
0.0988514
0.143608
0.178044
0.1596
0.0256887
0.109099
0.0401317
0.045797
0.026419
0.0296466
0.02565
0.0595394
0.0184676
0.0190825
0.0166062
0.021051
0.0251735
0.0122725
0.00429797
0.00274658
0.0363199
0.0408588
0.0337421
0.0035626
0.034093
0.0608076
0.00964557
0.00801897
0.0064748
0.00401172
0.0243943
0.0331522
0.0942514
0.0290116
0.0254541
0.144196
0.0355728
0.0389342
0.00311426
0.0373029
0.0178557
0.121301
0.209304
0.00616317
0.139962
0.140296
0.0909772
0.041761
0.0448145
0.112331
0.0972407
0.0889876
0.0492121
0.132779
0.140467
0.140626
0.140496
0.0095078
0.0254575
0.117491
0.140722
0.139342
0.00671123
0.127674
0.0915943
0.0400355
0.00304938
0.00149635
0.0646615
0.00149532
0.0359063
0.104332
0.0354943
0.0823617
0.0345398
0.00780898
0.0258622
0.118415
0.133771
0.160972
0.0274711
0.0029609
0.142085
0.0415378
0.0296281
0.00454625
0.117174
0.130371
0.144535
0.135821
0.00176287
0.0170519
0.121858
0.119931
0.130422
0.125046
0.111974
0.109476
0.002586
0.00354288
0.214139
0.193327
0.243426
0.141352
0.137159
0.00412489
0.0210619
0.268372
0.0137781
0.139744
0.138045
0.145931
0.149596
0.121717
0.111119
0.0131019
0.139872
0.0156615
0.107388
0.0185066
0.063751
0.140766
0.140788
0.014666
0.0582142
0.0495161
0.232547
0.150316
0.183616
0.124563
0.0351983
0.145591
0.144566
0.146649
0.132935
0.145975
0.046622
0.0575853
0.059516
0.0709258
0.0620776
0.140512
0.140796
0.136759
0.0588916
0.126859
0.0620817
0.135273
0.139483
0.152461
0.123078
0.00126185
0.113797
0.117778
0.143262
0.139776
0.132866
0.146264
0.131458
0.0357388
0.0400706
0.0900699
0.046408
0.0936984
0.0224431
0.0978891
0.141382
0.16324
0.155318
0.148523
0.141457
0.227753
0.195648
0.155956
0.164453
0.154642
0.250187
0.217808
0.141927
0.0900216
0.00934059
0.0104383
0.00769069
0.00943197
0.00765707
0.00901371
0.305001
0.164815
0.237385
0.176161
0.192262
0.102466
0.0325261
0.141312
0.0043988
0.123019
0.147997
0.0545652
0.323293
0.248429
0.124482
0.152843
0.031865
0.0464557
0.310493
0.0728184
0.282084
0.409671
0.313163
0.0137881
0.157982
0.131159
0.0110615
0.0808791
0.178953
0.126548
0.263723
0.256457
0.424544
0.329579
0.129449
0.13054
0.0300335
0.157716
0.223179
0.0050583
0.322068
0.3179
0.12731
0.00345767
0.0257876
0.00200999
0.00272319
0.00529679
0.139354
0.140926
0.140008
0.129824
0.127919
0.127189
0.14793
0.112754
0.155065
0.134638
0.148611
0.0408927
0.257079
0.371196
0.140779
0.0795404
0.040861
0.109917
0.376666
0.112794
0.01172
0.139849
0.139993
0.0748532
0.0203556
0.0039065
0.203417
0.0358478
0.0348885
0.0169553
0.110312
0.133511
0.134037
0.113992
0.0145909
0.144104
0.139801
0.0277846
0.140116
0.141468
0.0128536
0.139946
0.141113
0.0321721
0.0364129
0.14055
0.140566
0.0272344
0.0363848
0.143018
0.0110186
0.0630664
0.140459
0.294744
0.267603
0.140149
0.0858136
0.048019
0.00959003
0.0423838
0.0547494
0.0109389
0.0759606
0.02238
0.00187501
0.0122466
0.079418
0.00353616
0.00549035
0.00540553
0.002942
0.00405462
0.169991
0.293805
0.312194
0.244051
0.145182
0.00330182
0.0161027
0.0193411
0.0947664
0.443804
0.0165102
0.0122289
0.0925935
0.0995246
0.0179515
0.00821107
0.0430709
0.0153611
0.0128048
0.0593348
0.0133356
0.139933
0.00953705
0.227482
0.296991
0.00763482
0.00910123
0.0143701
0.0069646
0.0185156
0.140478
0.00988598
0.140369
0.139491
0.0483004
0.0115917
0.0104179
0.0242871
0.0274472
0.141085
0.0208302
0.0284733
0.108429
0.0861451
0.00180115
0.0614217
0.048825
0.0340723
0.066181
0.0196074
0.141054
0.0725848
0.141059
0.0271897
0.00345849
0.00532435
0.00567653
0.145116
0.150863
0.00108261
0.153178
0.0248956
0.038697
0.0299069
0.0305315
0.00557727
0.0386172
0.0567529
0.140537
0.140236
0.0154285
0.010859
0.0479905
0.00395977
0.139782
0.139731
0.0158935
0.0301513
0.139906
0.00693178
0.0212437
0.0109795
0.0175047
0.0107548
0.0107715
0.00222523
0.143262
0.0385009
0.00868381
0.0593902
0.0647814
0.0657763
0.02611
0.130901
0.00243153
0.144929
0.141824
0.1433
0.151589
0.155577
0.0799193
0.0011359
0.137072
0.127659
0.13784
0.0127881
0.00806642
0.186258
0.00250732
0.0123278
0.00202924
0.161235
0.00180673
0.146614
0.0715516
0.0603296
0.0140181
0.0578739
0.0201535
0.00397879
0.0214823
0.0273366
0.108151
0.0174157
0.00413916
0.00252825
0.0162801
0.143594
0.1174
0.00281692
0.0201702
0.00735054
0.011791
0.0102235
0.0421166
0.0119749
0.0474719
0.0199633
0.0214892
0.0227284
0.0204074
0.00314752
0.0393215
0.00749122
0.166295
0.015572
0.121595
0.0128765
0.11621
0.15941
0.0922667
0.138667
0.139974
0.0752839
0.132988
0.0118905
0.00633588
0.143904
0.0123395
0.0835469
0.133021
0.287109
0.00139726
0.016867
0.131605
0.0564215
0.0266698
0.0236484
0.188009
0.079666
0.0179187
0.013854
0.0463344
0.0607372
0.0962362
0.0541345
0.0423735
0.0231598
0.0285132
0.0614545
0.0501078
0.1303
0.0565086
0.130149
0.146882
0.133273
0.144681
0.137185
0.143861
0.00858149
0.306881
0.132353
0.180093
0.148524
0.403091
0.270593
0.229412
0.126774
0.217074
0.0317509
0.334242
0.140514
0.0254255
0.0782344
0.00664187
0.132059
0.00714594
0.133289
0.0496391
0.0435509
0.069968
0.00798608
0.0412061
0.112246
0.143075
0.143655
0.111919
0.347797
0.41356
0.338788
0.399152
0.00576842
0.0137541
0.0155723
0.133704
0.0143819
0.0418665
0.0510133
0.135775
0.0104251
0.0113021
0.0123683
0.00398511
0.00642436
0.0172479
0.0168157
0.00977442
0.0229123
0.0810007
0.094718
0.064019
0.0813192
0.00927374
0.00736683
0.0069756
0.0650891
0.0116845
0.0298829
0.00598102
0.29309
0.00305215
0.030046
0.0800513
0.0344794
0.0401207
0.13905
0.0142181
0.024253
0.00394481
0.142149
0.140815
0.00553148
0.00417743
0.0306102
0.0116961
0.0209139
0.0767902
0.0438361
0.00214814
0.00835058
0.00215458
0.00611286
0.00591685
0.0170097
0.0636892
0.0016174
0.0774731
0.137099
0.0359112
0.0872711
0.137413
0.0118758
0.00876499
0.0195429
0.116637
0.0113622
0.0178182
0.140067
0.0523003
0.00750688
0.0027229
0.00693878
0.0299733
0.0703949
0.0136998
0.0310581
0.067316
0.0223173
0.0194358
0.0178796
0.0159485
0.00444076
0.0770698
0.0107239
0.162721
0.0388132
0.0142511
0.121962
0.00255152
0.00523282
0.00525897
0.00791944
0.0487872
0.185013
0.0174859
0.128496
0.125976
0.0911979
0.0249483
0.0158377
0.14098
0.00963228
0.0104731
0.141085
0.00237494
0.136453
0.137998
0.00953224
0.138659
0.0308656
0.137929
0.117531
0.122056
0.141371
0.142022
0.0050019
0.13558
0.24345
0.323325
0.129313
0.258772
0.115223
0.121232
0.0114112
0.0118656
0.00596914
0.00566657
0.0108528
0.103768
0.0944047
0.00915003
0.0331187
0.0859401
0.00484394
0.0146054
0.0296295
0.0969972
0.104541
0.0225803
0.154622
0.0261466
0.0324293
0.00884242
0.00643033
0.00664401
0.10008
0.0319387
0.0430188
0.00911297
0.0102607
0.00686116
0.17076
0.00306818
0.093089
0.0950538
0.0319605
0.0507433
0.0775774
0.0869236
0.0050101
0.0458213
0.0680736
0.040346
0.00881821
0.00545389
0.0247566
0.0754755
0.0058588
0.12111
0.151422
0.114042
0.177635
0.143036
0.131275
0.136765
0.198824
0.0038888
0.14119
0.0583635
0.00359998
0.0604917
0.00285177
0.0125402
0.0154279
0.0170101
0.0769659
0.0665383
0.115151
0.140735
0.044882
0.0176063
0.101653
0.10361
0.0915552
0.123176
0.0176982
0.126779
0.118042
0.124303
0.00934851
0.140425
0.00466947
0.140457
0.0939365
0.00530713
0.00440181
0.0501641
0.132078
0.00561504
0.131067
0.019927
0.0479302
0.0436545
0.127301
0.00265747
0.112223
0.0384097
0.142004
0.0056725
0.111879
0.00811675
0.00449343
0.149705
0.0310188
0.140588
0.0282732
0.108872
0.0018828
0.0310414
0.135649
0.0837042
0.00573215
0.143338
0.0081664
0.093835
0.135555
0.00808017
0.0132011
0.0229943
0.0204973
0.0208398
0.0582578
0.0601064
0.00838903
0.0128345
0.0529375
0.101149
0.00675339
0.143419
0.139895
0.00688499
0.121861
0.0039054
0.00253211
0.0149582
0.00757904
0.0143208
0.0104534
0.0158235
0.00632076
0.00840292
0.0100061
0.0107283
0.00909398
0.124665
0.0116459
0.0108106
0.134215
0.0540998
0.140293
0.13518
0.123563
0.123857
0.00646013
0.161254
0.095645
0.219315
0.154546
0.0701086
0.00819861
0.036003
0.0464968
0.00146256
0.00920894
0.0717659
0.00940792
0.109812
0.00731154
0.139758
0.0500695
0.0582202
0.0607701
0.14074
0.140812
0.0445179
0.0368558
0.00754761
0.0242947
0.0131505
0.139718
0.130936
0.0283271
0.00955936
0.132126
0.161065
0.131404
0.001232
0.00459584
0.0151257
0.152336
0.0127545
0.00827631
0.160626
0.160586
0.159234
0.162065
0.010375
0.00896701
0.027501
0.0287507
0.0254172
0.086221
0.122049
0.0312566
0.0898761
0.00864264
0.066844
0.14455
0.0124873
0.0295968
0.0337056
0.141354
0.146366
0.139891
0.00371918
0.140586
0.0839223
0.00261952
0.0183431
0.032183
0.0107322
0.00694803
0.0109854
0.00530905
0.14104
0.0477177
0.055698
0.0105807
0.0220229
0.0313751
0.0181578
0.0121946
0.0118831
0.0138706
0.0117776
0.0176635
0.0284695
0.00992765
0.00546245
0.0173441
0.0123419
0.158513
0.153793
0.143664
0.267294
0.00823814
0.00831763
0.0107
0.142063
0.0144155
0.0457961
0.00309133
0.207123
0.140457
0.140505
0.0723719
0.0743347
0.0135645
0.151589
0.146614
0.147907
0.0352769
0.139834
0.00280517
0.0105112
0.00607458
0.0588565
0.0836319
0.117952
0.16363
0.0721565
0.00203356
0.141167
0.104817
0.012417
0.00271815
0.00530582
0.00300124
0.00362205
0.00245914
0.13472
0.0190428
0.0197861
0.141583
0.133964
0.138842
0.0264237
0.0363311
0.0334506
0.118287
0.13998
0.0988296
0.108278
0.0812917
0.0449493
0.0101199
0.0125835
0.126312
0.0389506
0.0123044
0.00543211
0.129555
0.0175811
0.140931
0.0237883
0.0182268
0.00237753
0.0210815
0.0990488
0.114975
0.130695
0.101125
0.118679
0.071312
0.0796145
0.0216526
0.0768746
0.0818017
0.11329
0.0158589
0.0319963
0.0359272
0.0178539
0.00346599
0.00287143
0.00288534
0.0874483
0.00127067
0.00851852
0.0335283
0.135957
0.0139206
0.0179997
0.0248008
0.0227231
0.0301162
0.0290023
0.068016
0.0168965
0.0187144
0.0559936
0.0651824
0.21826
0.0918611
0.0920282
0.0162717
0.0023681
0.00164969
0.0333392
0.00470823
0.0428329
0.00150527
0.0111363
0.00977501
0.0589037
0.00103333
0.073145
0.190548
0.108261
0.139494
0.0218727
0.00120349
0.0106282
0.184408
0.167237
0.0259005
0.0721565
0.0245101
0.0182533
0.0143538
0.0103138
0.104304
0.00500107
0.00423615
0.00785141
0.00720338
0.0260058
0.0262339
0.0229522
0.00593489
0.00260015
0.102258
0.00450429
0.129362
0.0231518
0.00772457
0.0185143
0.151759
0.00390517
0.0504911
0.00612438
0.044141
0.135196
0.00173913
0.219517
0.258072
0.00355038
0.00202042
0.138925
0.141075
0.141424
0.141107
0.14046
0.00588466
0.135395
0.287809
0.222612
0.136121
0.0040134
0.00224551
0.134548
0.0989501
0.140075
0.140415
0.214937
0.184799
0.00548036
0.00638945
0.0030586
0.0116456
0.0040737
0.00460559
0.00550348
0.00266755
0.140896
0.140857
0.0139559
0.0141013
0.0293758
0.00329769
0.00576612
0.0104194
0.0281533
0.000996798
0.0739341
0.00268432
0.0147313
0.00746758
0.00810694
0.0556908
0.0205186
0.0630182
0.0751663
0.0298993
0.00378541
0.00590686
0.00483639
0.0357955
0.00628485
0.00437236
0.00172921
0.0476622
0.133977
0.0511543
0.221931
0.00821467
0.00733164
0.0276386
0.0498638
0.0022168
0.123807
0.00504417
0.126736
0.118282
0.00280838
0.00545303
0.0141937
0.0486048
0.117613
0.0100188
0.0130623
0.134354
0.136092
0.112871
0.00653676
0.0875577
0.00444023
0.0113459
0.0134525
0.193191
0.261301
0.00138382
0.0141037
0.0131272
0.041242
0.0198445
0.00349491
0.0126193
0.107094
0.0133772
0.114423
0.011498
0.0349678
0.00569002
0.0190435
0.00754221
0.137666
0.0479459
0.149563
0.137687
0.136992
0.00365393
0.0152616
0.0132801
0.0717708
0.0156246
0.0186293
0.0870018
0.0760707
0.00837256
0.00801686
0.0125583
0.019756
0.00421343
0.0722963
0.00251119
0.00269242
0.00670395
0.0039626
0.137168
0.138388
0.141875
0.138964
0.141797
0.00413601
0.00731487
0.0118567
0.00475244
0.14383
0.00470407
0.156086
0.00493515
0.0103804
0.00129857
0.0121
0.00593903
0.00133023
0.00504865
0.00264109
0.00157866
0.0059632
0.0857132
0.074652
0.0666465
0.0483086
0.047237
0.112399
0.112026
0.012662
0.00673484
0.0138201
0.0424069
0.146222
0.0891468
0.0129605
0.00131941
0.0119138
0.145521
0.00512657
0.00477141
0.0690998
0.138422
0.00306902
0.00155436
0.00333819
0.0956771
0.00146655
0.139637
0.134951
0.040013
0.145959
0.145666
0.00279554
0.000821207
0.0455114
0.0202104
0.0026643
0.0258406
0.00656585
0.0703208
0.145644
0.00192844
0.0461445
0.0341802
0.0854353
0.0320463
0.0150487
0.00789602
0.0146568
0.0111658
0.00863453
0.00950982
0.0227293
0.0373833
0.0409993
0.138441
0.0348865
0.0655407
0.0185859
0.139975
0.0234783
0.0132278
0.0221773
0.016709
0.156177
0.0117934
0.0138987
0.0311368
0.0420416
0.144703
0.018875
0.0886838
0.0178436
0.0894279
0.0151224
0.140655
0.141094
0.140682
0.0518514
0.00905773
0.0190078
0.0880565
0.0263944
0.00779368
0.0232586
0.0318689
0.00100895
0.0381824
0.0195101
0.0471086
0.0130323
0.0505386
0.0428913
0.345708
0.0147602
0.0555455
0.0338952
0.0045872
0.0469286
0.0739446
0.0128881
0.0272964
0.0128402
0.0451383
0.0142951
0.0298117
0.00685631
0.00396282
0.0337927
0.0142711
0.00906005
0.0340778
0.0398047
0.0208456
0.0399885
0.054717
0.130624
0.0116293
0.00224496
0.00296833
0.157385
0.0105998
0.0163608
0.0127107
0.0737376
0.128477
0.0108346
0.0247476
0.010025
0.00485161
0.111218
0.0882919
0.140139
0.109668
0.0176233
0.00679926
0.0210498
0.00789757
0.123299
0.0161564
0.0929352
0.138401
0.017972
0.139588
0.00661545
0.119846
0.0148132
0.0360279
0.0167976
0.00358978
0.00628784
0.0232443
0.00647561
0.0281036
0.139388
0.0119637
0.00867214
0.00266648
0.0243817
0.0956613
0.00266105
0.0460739
0.0442655
0.0147668
0.067793
0.00492457
0.00950839
0.00804453
0.00494501
0.0289272
0.022971
0.116775
0.0293246
0.02859
0.0141747
0.0126683
0.00449949
0.0282116
0.00991394
0.00671942
0.00190605
0.0372247
0.0149856
0.00775308
0.130006
0.136665
0.0129309
0.00651246
0.00832965
0.0133452
0.108338
0.0146602
0.0138602
0.0147784
0.00123908
0.130879
0.00157057
0.0770972
0.00529687
0.116051
0.00919619
0.0106238
0.00370141
0.00127124
0.107223
0.0943717
0.0320435
0.00363264
0.00851601
0.00598456
0.00159201
0.00475201
0.00269959
0.00218062
0.0061131
0.00357027
0.00488256
0.00539174
0.0994324
0.0919501
0.00106589
0.119639
0.142703
0.120218
0.0208407
0.00284871
0.00516618
0.0242442
0.0177839
0.12375
0.0195688
0.150504
0.0250874
0.0200536
0.0135271
0.00199083
0.0319367
0.0377519
0.031803
0.0189071
0.0172437
0.0189688
0.00642657
0.00139706
0.0271315
0.0535746
0.0333073
0.0142471
0.0168474
0.00823928
0.0324649
0.139566
0.00134951
0.00192593
0.00360253
0.140033
0.0119868
0.0196132
0.0010146
0.00847279
0.00202292
0.0367919
0.00172562
0.0173104
0.0168276
0.0684762
0.0133291
0.0026259
0.00122656
0.0281394
0.010387
0.0900647
0.0295076
0.021575
0.0246536
0.00458153
0.0206507
0.0203979
0.0323084
0.0364418
0.00132402
0.00361357
0.0169564
0.00222793
0.00403293
0.0422297
0.025506
0.00222799
0.0161044
0.0166868
0.137244
0.00770722
0.00938809
0.0304983
0.0113071
0.0112971
0.00471815
0.037678
0.00426855
0.0445386
0.00821603
0.0081764
0.024631
0.0230435
0.0319758
0.00109886
0.0571092
0.0262028
0.221777
0.027846
0.0285396
0.218685
0.126394
0.0603694
0.0099944
0.00144248
0.104431
0.0738526
0.0959237
0.00158904
0.0161172
0.0164373
0.0149029
0.0738986
0.0466667
0.00191879
0.139218
0.0153753
0.00120483
0.00270959
0.0146996
0.071755
0.0243605
0.0234002
0.0112131
0.128887
0.0118079
0.0225221
0.00994034
0.0201849
0.0108565
0.0235608
0.00607934
0.00257305
0.0203414
0.057685
0.00914114
0.0191082
0.00702001
0.00187877
0.0173005
0.0268837
0.023869
0.0104041
0.0167258
0.0351734
0.0329293
0.00870125
0.0362485
0.0532948
0.022622
0.000951487
0.0155434
0.0304425
0.111422
0.0107209
0.10715
0.100098
0.0944981
0.277796
0.0142687
0.273011
0.35032
0.00153791
0.0327844
0.00474661
0.0195214
0.00183985
0.00581826
0.00863962
0.140814
0.00767157
0.00997501
0.00545262
0.0502408
0.0253374
0.0119736
0.00379541
0.0251515
0.0343024
0.25574
0.0545451
0.0274092
0.0253479
0.0301311
0.0461702
0.0304602
0.0494493
0.116664
0.0467142
0.113636
0.05387
0.00841414
0.0122009
0.0100708
0.0189008
0.0112404
0.0126598
0.039701
0.0245495
0.135265
0.0025091
0.0822502
0.00847597
0.00603155
0.00870294
0.0585571
0.00943022
0.08305
0.00167371
0.0583553
0.0312464
0.0552626
0.0835776
0.0282984
0.0362813
0.0106185
0.0403428
0.0361395
0.0925979
0.0131772
0.0148911
0.00648191
0.0098838
0.0155489
0.00974224
0.132203
0.00195861
0.00146618
0.00600008
0.0153863
0.0391119
0.00422259
0.0736764
0.00385315
0.0203157
0.00227047
0.00509534
0.0911633
0.0137683
0.0014524
0.0122488
0.00488295
0.0293108
0.0104649
0.0210074
0.00485294
0.0021938
0.00104608
0.0145822
0.00591046
0.00101701
0.00131418
0.00900122
0.00829339
0.140495
0.140222
0.140435
0.0259323
0.00210892
0.00612691
0.0116305
0.00300295
0.0335801
0.0311351
0.00607153
0.00928782
0.0564989
0.009712
0.0109038
0.0252487
0.0236073
0.137953
0.0144246
0.0503566
0.0231188
0.029545
0.00195567
0.0380716
0.0048413
0.00238568
0.00187654
0.00348492
0.00246909
0.00182277
0.0183633
0.00411164
0.0317974
0.0287307
0.0256484
0.0276169
0.026723
0.0121483
0.0240982
0.00830792
0.0389823
0.00790485
0.11624
0.190402
0.00654967
0.119702
0.00112462
0.00526418
0.0245292
0.0428837
0.00960914
0.0387047
0.032497
0.00583712
0.0076729
0.13008
0.0104322
0.0263429
0.0260845
0.0573739
0.00752336
0.0287812
0.00353108
0.0274568
0.00241396
0.141117
0.00492223
0.00256892
0.0167678
0.0100826
0.00172508
0.00547589
0.00718007
0.141123
0.141327
0.00275023
0.00270917
0.135966
0.0153761
0.122224
0.0039478
0.0103124
0.01251
0.00184282
0.0371647
0.013038
0.0202618
0.0151373
0.0129298
0.0153061
0.0145933
0.00446054
0.003406
0.0195436
0.0159629
0.0179008
0.0204008
0.0123313
0.0139508
0.0156273
0.00263606
0.00381585
0.00448647
0.11951
0.117386
0.00332045
0.118319
0.00473951
0.00496267
0.00110162
0.0221389
0.0185864
0.0225681
0.0109314
0.012223
0.0147286
0.0154283
0.00132267
0.015982
0.00121995
0.0087837
0.0101001
0.140349
0.00166068
0.139551
0.00792058
0.00649458
0.00316523
0.0155617
0.00953111
0.00168183
0.0409676
0.0100083
0.00376473
0.00702834
0.00683174
0.00593153
0.0128169
0.00635837
0.0140105
0.00747547
0.0140603
0.0130017
0.0497367
0.0463817
0.124135
0.0162592
0.00320697
0.0299038
0.0340043
0.00857524
0.00459222
0.109544
0.11201
0.0146219
0.00208516
0.0107157
0.0690044
0.00468781
0.00128025
0.00976069
0.00908661
0.0011953
0.00215997
0.0197402
0.00240329
0.0185514
0.0372874
0.00254707
0.00134779
0.0417849
0.00865148
0.0676252
0.0737615
0.0100313
0.0219858
0.021688
0.026315
0.0345283
0.0310893
0.0367232
0.103127
0.00849416
0.0227469
0.00997211
0.0303597
0.00378504
0.0115567
0.00267025
0.0027277
0.0108674
0.00384284
0.000929541
0.00260371
0.101677
0.00599488
0.00193346
0.00632485
0.0010461
0.00488956
0.00379511
0.0923821
0.00129261
0.00132778
0.0113336
0.00926299
0.0192511
0.12438
0.0079547
0.123163
0.0809132
0.128696
0.0208414
0.0108771
0.00374555
0.135284
0.00103949
0.136498
0.0823116
0.0249839
0.0155774
0.00362589
0.00109772
0.00192902
0.0222579
0.00524592
0.00167019
0.0037098
0.00188352
0.00407649
0.00115192
0.00430608
0.00579924
0.00465315
0.0115268
0.0122393
0.00525523
0.0110878
0.0124872
0.0717303
0.00201845
0.0373308
0.139242
0.0175787
0.0131213
0.138413
0.00174733
0.003987
0.00670496
0.00310933
0.00931083
)
;

boundaryField
{
    frontAndBack
    {
        type            empty;
    }
    outlet
    {
        type            freestream;
        freestreamValue uniform 0.14;
        value           nonuniform List<scalar> 7(0.127919 0.133273 0.229412 0.217074 0.41356 0.399152 0.0920282);
    }
    walls
    {
        type            nutUSpaldingWallFunction;
        value           nonuniform List<scalar> 
28
(
0.00575111
0.00597071
0.00611896
0.00626028
0.0065886
0.00681978
0.00625608
0.00573102
0.00590324
0.00559809
0.00473848
0.00626291
0.00772461
0.00604982
0.007617
0.00740609
0.00643494
0.00704853
0.00669517
0.0049303
0.00535446
0.005022
0.00510389
0.00666972
0.0058611
0.00753474
0.0055451
0.00474956
)
;
    }
    inlet
    {
        type            freestream;
        freestreamValue uniform 0.14;
        value           uniform 0.14;
    }
    airfoil
    {
        type            nutUSpaldingWallFunction;
        value           nonuniform List<scalar> 
153
(
4.18828e-05
0.000157895
4.01922e-05
0.000119803
8.47862e-05
3.73687e-05
3.93833e-05
0.000149432
8.46847e-05
0.000148012
3.24001e-05
8.40427e-05
4.08655e-05
0.000109378
7.03949e-05
0.000139379
0.000108324
0.000120567
7.38566e-05
5.84409e-05
7.46692e-05
8.69718e-05
9.72585e-05
4.82673e-05
4.4767e-05
8.34884e-05
6.80622e-05
5.3711e-05
9.16205e-05
3.86796e-05
4.77486e-05
3.49483e-05
0.000105516
6.92356e-05
9.67491e-05
0.000141413
5.32619e-05
9.15767e-05
4.2795e-05
7.26272e-05
0.000121478
0.000106686
0.000107892
7.20029e-05
0.000103401
3.77024e-05
8.12295e-05
3.55459e-05
5.74881e-05
7.01437e-05
0.000105252
0.000115107
5.10272e-05
0.000138612
9.06842e-05
0.000129066
0.000146747
6.25997e-05
7.84381e-05
7.65547e-05
7.36026e-05
0.000131685
8.0766e-05
6.11738e-05
0.000151527
4.11247e-05
3.48768e-05
0.000108248
8.44348e-05
8.0595e-05
0.000140864
8.04204e-05
9.85703e-05
9.33304e-05
4.87727e-05
6.65547e-05
5.45978e-05
6.24751e-05
3.67753e-05
3.88679e-05
5.80941e-05
5.07796e-05
9.08952e-05
0.000109632
2.87743e-05
7.28346e-05
6.80693e-05
0.000119051
4.32138e-05
7.58818e-05
3.81075e-05
4.42774e-05
4.63442e-05
3.58037e-05
4.10582e-05
2.3501e-05
0.000129024
3.69751e-05
0.000116823
8.89832e-05
4.15798e-05
4.77386e-05
3.82911e-05
5.03801e-05
0.000149197
3.06244e-05
4.20404e-05
4.11959e-05
2.88513e-05
5.67228e-05
3.5236e-05
4.0843e-05
3.26079e-05
4.28213e-05
4.67103e-05
4.02607e-05
5.03209e-05
3.5053e-05
4.59297e-05
4.95338e-05
4.99111e-05
7.64576e-05
4.4049e-05
4.73394e-05
2.78386e-05
2.8722e-05
4.20401e-05
5.72541e-05
0.000125503
6.42683e-05
7.00612e-05
2.52533e-05
6.18888e-05
7.76006e-05
4.96979e-05
5.7761e-05
2.67744e-05
4.32931e-05
4.18331e-05
5.10588e-05
4.20405e-05
3.87102e-05
6.86761e-05
4.3439e-05
3.20864e-05
7.65527e-05
3.01482e-05
3.10541e-05
3.31614e-05
3.26928e-05
3.95563e-05
5.82722e-05
3.76555e-05
)
;
    }
}


// ************************************************************************* //
