/*--------------------------------*- C++ -*----------------------------------*\
| =========                 |                                                 |
| \\      /  F ield         | OpenFOAM: The Open Source CFD Toolbox           |
|  \\    /   O peration     | Version:  2206                                  |
|   \\  /    A nd           | Website:  www.openfoam.com                      |
|    \\/     M anipulation  |                                                 |
\*---------------------------------------------------------------------------*/
FoamFile
{
    version     2.0;
    format      ascii;
    arch        "LSB;label=32;scalar=64";
    class       volScalarField;
    location    "239";
    object      nuTilda;
}
// * * * * * * * * * * * * * * * * * * * * * * * * * * * * * * * * * * * * * //

dimensions      [0 2 -1 0 0 0 0];

internalField   nonuniform List<scalar> 
2283
(
0.174344
0.230524
0.00357732
0.00438185
0.00723103
0.00818033
0.129687
0.132261
0.00147966
0.00479824
0.00356815
0.0972378
0.00303122
0.0601686
0.0887787
0.12124
0.12035
0.0443989
0.182685
0.00513937
0.0130093
0.0115967
0.140029
0.139913
0.161803
0.211273
0.135228
0.0295387
0.135206
0.00215382
0.00129119
0.130957
0.126543
0.140708
0.140203
0.126866
0.120875
0.140799
0.140622
0.296512
0.225618
0.0514952
0.00794027
0.0089459
0.032612
0.0263054
0.0100484
0.023811
0.01922
0.137924
0.01285
0.133016
0.00486848
0.023861
0.1006
0.0131666
0.0393866
0.0583202
0.00235988
0.10296
0.0512533
0.0742386
0.0133125
0.046296
0.00106428
0.161977
0.217776
0.0534971
0.00616967
0.00993729
0.0508898
0.0047001
0.096108
0.192041
0.0730981
0.00641627
0.141522
0.139587
0.140536
0.141052
0.0775149
0.101623
0.0235025
0.00407928
0.00136675
0.00392388
0.00986804
0.0313066
0.0111958
0.0127632
0.0425438
0.00527002
0.0268413
0.0803485
0.0608667
0.14168
0.105388
0.00703912
0.145086
0.00503154
0.0960879
0.105987
0.292045
0.0116709
0.00231733
0.00302684
0.353836
0.15372
0.00359597
0.00247472
0.144261
0.132943
0.132793
0.0668066
0.0536105
0.00312199
0.00626012
0.155315
0.00801604
0.0386736
0.0787498
0.0123433
0.136901
0.136549
0.00118372
0.00922576
0.0421305
0.0118722
0.0107658
0.013868
0.0308137
0.00364792
0.0025157
0.0971548
0.0367265
0.0224024
0.113595
0.112994
0.00817788
0.00706225
0.0472947
0.00971263
0.0144363
0.042087
0.0598143
0.00200806
0.0505318
0.14043
0.140063
0.0467435
0.14999
0.0675466
0.105442
0.0968417
0.0100113
0.0094745
0.00506272
0.00437287
0.0358029
0.00775385
0.0519594
0.193879
0.047992
0.0156332
0.123287
0.023655
0.128156
0.00926028
0.13275
0.0455672
0.00245788
0.00143344
0.00278361
0.00718624
0.120769
0.00552487
0.034491
0.0294932
0.00607045
0.00563031
0.0240972
0.0138946
0.00511659
0.0027505
0.0220618
0.0176485
0.00186295
0.00771401
0.0156707
0.00357564
0.00366979
0.138591
0.11349
0.0543747
0.0281551
0.0341751
0.055422
0.0611641
0.0192152
0.0180509
0.0433975
0.047953
0.0035293
0.0200214
0.0021371
0.0151841
0.0101241
0.0196645
0.0612786
0.0210599
0.139453
0.140378
0.0019153
0.0351985
0.0141931
0.039315
0.00670623
0.038102
0.0236501
0.00159714
0.00203525
0.0831745
0.00240459
0.0127878
0.00668689
0.00189725
0.00583984
0.00918866
0.00470331
0.128875
0.00812307
0.00253526
0.00336706
0.0231949
0.0270588
0.0378909
0.002202
0.0981509
0.00208731
0.128178
0.0789676
0.033252
0.00146989
0.124471
0.00948609
0.103671
0.0104689
0.0112089
0.079817
0.124574
0.166765
0.00239726
0.00212904
0.0718684
0.00135829
0.0160568
0.00203184
0.0820083
0.10049
0.0128757
0.0116015
0.0867795
0.0169209
0.00209517
0.00230564
0.0204363
0.0697252
0.0716197
0.00845428
0.0769416
0.0826303
0.0751359
0.0744263
0.0126263
0.054577
0.0190318
0.00670352
0.043166
0.0409116
0.0110622
0.040112
0.0310169
0.0134925
0.00146994
0.0104907
0.0900569
0.054201
0.0131261
0.0124139
0.0252178
0.0265695
0.105625
0.0491438
0.00644158
0.00209989
0.00354466
0.00249929
0.00873714
0.0117689
0.00999061
0.00575525
0.0122124
0.0120654
0.0687537
0.0950226
0.0511158
0.0743419
0.0525933
0.022236
0.0215206
0.0364493
0.160365
0.0259416
0.079455
0.0621146
0.0235627
0.0268119
0.0599587
0.151974
0.0195545
0.0191809
0.0176692
0.193505
0.0155794
0.0175663
0.014967
0.0229388
0.0257222
0.0667285
0.00121185
0.05035
0.0230409
0.0370957
0.0340722
0.142204
0.140524
0.0310284
0.0144048
0.0772358
0.0197885
0.114406
0.0699986
0.00344609
0.00166758
0.0537994
0.0190057
0.00182894
0.0207421
0.0010414
0.00910121
0.0098459
0.00658655
0.0498753
0.10616
0.140585
0.00770408
0.0947991
0.0164447
0.0153343
0.0202438
0.0225112
0.00662439
0.00685864
0.00783777
0.128294
0.0207969
0.0493126
0.00990113
0.00696712
0.00475696
0.00329966
0.020058
0.129938
0.0242518
0.0217455
0.137744
0.126625
0.00722166
0.00720878
0.00822567
0.00611253
0.0988514
0.143608
0.178044
0.1596
0.0256887
0.109099
0.0401317
0.045797
0.026419
0.0296466
0.02565
0.0595394
0.0184676
0.0190825
0.0166062
0.021051
0.0251735
0.0122725
0.00429803
0.00274674
0.0363199
0.0408588
0.0337421
0.0035627
0.034093
0.0608076
0.00964558
0.00801899
0.00647483
0.00401179
0.0243943
0.0331522
0.0942514
0.0290116
0.0254541
0.144196
0.0355728
0.0389342
0.00311438
0.0373029
0.0178557
0.121301
0.209304
0.0061632
0.139962
0.140296
0.0909772
0.041761
0.0448145
0.112331
0.0972407
0.0889876
0.0492121
0.132779
0.140467
0.140626
0.140496
0.00950782
0.0254575
0.117491
0.140722
0.139342
0.00671126
0.127674
0.0915943
0.0400355
0.00304951
0.00149689
0.0646615
0.00149586
0.0359063
0.104332
0.0354943
0.0823617
0.0345398
0.007809
0.0258623
0.118415
0.133771
0.160972
0.0274711
0.00296104
0.142085
0.0415378
0.0296281
0.00454631
0.117174
0.130371
0.144535
0.135821
0.00176326
0.0170519
0.121858
0.119931
0.130422
0.125046
0.111974
0.109476
0.00258618
0.00354297
0.214139
0.193327
0.243426
0.141352
0.137159
0.00412496
0.0210619
0.268372
0.0137781
0.139744
0.138045
0.145931
0.149596
0.121717
0.111119
0.0131019
0.139872
0.0156615
0.107388
0.0185067
0.063751
0.140766
0.140788
0.014666
0.0582142
0.0495161
0.232547
0.150316
0.183616
0.124563
0.0351983
0.145591
0.144566
0.146649
0.132935
0.145975
0.046622
0.0575853
0.059516
0.0709258
0.0620776
0.140512
0.140796
0.136759
0.0588916
0.126859
0.0620817
0.135273
0.139483
0.152461
0.123078
0.0012626
0.113797
0.117778
0.143262
0.139776
0.132866
0.146264
0.131458
0.0357388
0.0400706
0.0900699
0.046408
0.0936984
0.0224431
0.0978891
0.141382
0.16324
0.155318
0.148523
0.141457
0.227753
0.195648
0.155956
0.164453
0.154642
0.250187
0.217808
0.141927
0.0900216
0.0093406
0.0104383
0.00769071
0.00943199
0.00765709
0.00901373
0.305001
0.164815
0.237385
0.176161
0.192262
0.102466
0.0325261
0.141312
0.00439886
0.123019
0.147997
0.0545652
0.323293
0.248429
0.124482
0.152843
0.031865
0.0464557
0.310493
0.0728184
0.282084
0.409671
0.313163
0.0137881
0.157982
0.131159
0.0110615
0.0808791
0.178953
0.126548
0.263723
0.256457
0.424544
0.329579
0.129449
0.13054
0.0300335
0.157716
0.223179
0.00505835
0.322068
0.3179
0.12731
0.00345777
0.0257876
0.00201029
0.00272335
0.00529683
0.139354
0.140926
0.140008
0.129824
0.127919
0.127189
0.14793
0.112754
0.155065
0.134638
0.148611
0.0408927
0.257079
0.371196
0.140779
0.0795404
0.040861
0.109917
0.376666
0.112794
0.01172
0.139849
0.139993
0.0748532
0.0203556
0.00390658
0.203417
0.0358478
0.0348885
0.0169553
0.110312
0.133511
0.134037
0.113992
0.0145909
0.144104
0.139801
0.0277846
0.140116
0.141468
0.0128536
0.139946
0.141113
0.0321721
0.0364129
0.14055
0.140566
0.0272344
0.0363848
0.143018
0.0110186
0.0630664
0.140459
0.294744
0.267603
0.140149
0.0858136
0.048019
0.00959004
0.0423838
0.0547494
0.0109389
0.0759606
0.02238
0.00187535
0.0122466
0.079418
0.00353626
0.00549039
0.00540557
0.00294213
0.0040547
0.169991
0.293805
0.312194
0.244051
0.145182
0.00330193
0.0161027
0.0193411
0.0947664
0.443804
0.0165102
0.0122289
0.0925935
0.0995246
0.0179515
0.00821109
0.0430709
0.0153611
0.0128048
0.0593348
0.0133356
0.139933
0.00953706
0.227482
0.296991
0.00763484
0.00910125
0.0143701
0.00696462
0.0185156
0.140478
0.00988599
0.140369
0.139491
0.0483004
0.0115918
0.0104179
0.0242871
0.0274472
0.141085
0.0208302
0.0284733
0.108429
0.0861451
0.00180152
0.0614217
0.048825
0.0340723
0.066181
0.0196074
0.141054
0.0725848
0.141059
0.0271897
0.0034586
0.00532439
0.00567657
0.145116
0.150863
0.00108364
0.153178
0.0248956
0.038697
0.0299069
0.0305315
0.00557731
0.0386172
0.0567529
0.140537
0.140236
0.0154285
0.010859
0.0479905
0.00395984
0.139782
0.139731
0.0158935
0.0301513
0.139906
0.00693181
0.0212437
0.0109795
0.0175047
0.0107548
0.0107715
0.00222548
0.143262
0.0385009
0.00868383
0.0593902
0.0647814
0.0657763
0.02611
0.130901
0.00243174
0.144929
0.141824
0.1433
0.151589
0.155577
0.0799193
0.00113683
0.137072
0.127659
0.13784
0.0127881
0.00806644
0.186258
0.00250751
0.0123278
0.00202954
0.161235
0.00180709
0.146614
0.0715516
0.0603296
0.0140181
0.0578739
0.0201535
0.00397887
0.0214823
0.0273366
0.108151
0.0174157
0.00413923
0.00252844
0.0162801
0.143594
0.1174
0.00281707
0.0201702
0.00735056
0.011791
0.0102235
0.0421166
0.0119749
0.0474719
0.0199633
0.0214892
0.0227284
0.0204074
0.00314765
0.0393215
0.00749124
0.166295
0.015572
0.121595
0.0128765
0.11621
0.15941
0.0922667
0.138667
0.139974
0.0752839
0.132988
0.0118906
0.00633591
0.143904
0.0123395
0.0835469
0.133021
0.287109
0.00139788
0.016867
0.131605
0.0564215
0.0266698
0.0236484
0.188009
0.079666
0.0179187
0.013854
0.0463344
0.0607372
0.0962362
0.0541345
0.0423735
0.0231598
0.0285132
0.0614545
0.0501078
0.1303
0.0565086
0.130149
0.146882
0.133273
0.144681
0.137185
0.143861
0.00858151
0.306881
0.132353
0.180093
0.148524
0.403091
0.270593
0.229412
0.126774
0.217074
0.0317509
0.334242
0.140514
0.0254255
0.0782344
0.00664189
0.132059
0.00714596
0.133289
0.0496391
0.0435509
0.069968
0.0079861
0.0412061
0.112246
0.143075
0.143655
0.111919
0.347797
0.41356
0.338788
0.399152
0.00576846
0.0137541
0.0155723
0.133704
0.0143819
0.0418665
0.0510133
0.135775
0.0104251
0.0113021
0.0123683
0.00398519
0.00642439
0.0172479
0.0168157
0.00977443
0.0229123
0.0810007
0.094718
0.064019
0.0813192
0.00927376
0.00736686
0.00697563
0.0650891
0.0116845
0.0298829
0.00598106
0.29309
0.00305228
0.030046
0.0800513
0.0344794
0.0401207
0.13905
0.0142181
0.024253
0.00394489
0.142149
0.140815
0.00553152
0.0041775
0.0306102
0.0116961
0.0209139
0.0767902
0.0438361
0.0021484
0.0083506
0.00215484
0.0061129
0.00591688
0.0170097
0.0636892
0.00161787
0.0774731
0.137099
0.0359112
0.0872711
0.137413
0.0118758
0.00876501
0.0195429
0.116637
0.0113623
0.0178182
0.140067
0.0523003
0.0075069
0.00272306
0.00693881
0.0299733
0.0703949
0.0136998
0.0310581
0.067316
0.0223173
0.0194358
0.0178796
0.0159485
0.00444083
0.0770698
0.0107239
0.162721
0.0388132
0.0142511
0.121962
0.00255171
0.00523286
0.00525901
0.00791946
0.0487872
0.185013
0.0174859
0.128496
0.125976
0.0911979
0.0249483
0.0158377
0.14098
0.00963229
0.0104731
0.141085
0.00237515
0.136453
0.137998
0.00953225
0.138659
0.0308656
0.137929
0.117531
0.122056
0.141371
0.142022
0.00500195
0.13558
0.24345
0.323325
0.129313
0.258772
0.115223
0.121232
0.0114112
0.0118656
0.00596918
0.00566661
0.0108528
0.103768
0.0944047
0.00915004
0.0331187
0.0859401
0.00484399
0.0146054
0.0296295
0.0969972
0.104541
0.0225803
0.154622
0.0261466
0.0324293
0.00884244
0.00643036
0.00664404
0.10008
0.0319387
0.0430188
0.00911298
0.0102607
0.00686118
0.17076
0.00306831
0.093089
0.0950538
0.0319605
0.0507433
0.0775774
0.0869236
0.00501015
0.0458213
0.0680736
0.040346
0.00881822
0.00545393
0.0247566
0.0754755
0.00585884
0.12111
0.151422
0.114042
0.177635
0.143036
0.131275
0.136765
0.198824
0.00388888
0.14119
0.0583635
0.00360008
0.0604917
0.00285192
0.0125402
0.0154279
0.0170101
0.0769659
0.0665383
0.115151
0.140735
0.044882
0.0176063
0.101653
0.10361
0.0915552
0.123176
0.0176982
0.126779
0.118042
0.124303
0.00934853
0.140425
0.00466953
0.140457
0.0939365
0.00530717
0.00440187
0.0501641
0.132078
0.00561507
0.131067
0.019927
0.0479302
0.0436545
0.127301
0.00265764
0.112223
0.0384097
0.142004
0.00567254
0.111879
0.00811677
0.00449349
0.149705
0.0310188
0.140588
0.0282732
0.108872
0.00188314
0.0310414
0.135649
0.0837042
0.00573219
0.143338
0.00816642
0.093835
0.135555
0.00808019
0.0132011
0.0229943
0.0204973
0.0208398
0.0582578
0.0601064
0.00838904
0.0128345
0.0529376
0.101149
0.00675342
0.143419
0.139895
0.00688501
0.121861
0.00390548
0.0025323
0.0149582
0.00757906
0.0143208
0.0104534
0.0158236
0.00632079
0.00840294
0.0100061
0.0107283
0.009094
0.124665
0.0116459
0.0108107
0.134215
0.0540998
0.140293
0.13518
0.123563
0.123857
0.00646016
0.161254
0.095645
0.219315
0.154546
0.0701086
0.00819862
0.036003
0.0464968
0.00146313
0.00920896
0.0717659
0.00940794
0.109812
0.00731156
0.139758
0.0500695
0.0582202
0.0607701
0.14074
0.140812
0.0445179
0.0368558
0.00754763
0.0242947
0.0131505
0.139718
0.130936
0.0283271
0.00955937
0.132126
0.161065
0.131404
0.0012328
0.0045959
0.0151257
0.152336
0.0127545
0.00827633
0.160626
0.160586
0.159234
0.162065
0.010375
0.00896702
0.027501
0.0287507
0.0254172
0.086221
0.122049
0.0312566
0.0898761
0.00864265
0.066844
0.14455
0.0124873
0.0295968
0.0337056
0.141354
0.146366
0.139891
0.00371927
0.140586
0.0839223
0.00261969
0.0183431
0.032183
0.0107322
0.00694806
0.0109854
0.00530909
0.14104
0.0477177
0.055698
0.0105808
0.0220229
0.0313751
0.0181578
0.0121946
0.0118831
0.0138706
0.0117776
0.0176636
0.0284695
0.00992766
0.00546249
0.0173441
0.0123419
0.158513
0.153793
0.143664
0.267294
0.00823816
0.00831764
0.0107
0.142063
0.0144155
0.0457961
0.00309146
0.207123
0.140457
0.140505
0.0723719
0.0743347
0.0135645
0.151589
0.146614
0.147907
0.0352769
0.139834
0.00280532
0.0105112
0.00607461
0.0588565
0.0836319
0.117952
0.16363
0.0721565
0.00203385
0.141167
0.104817
0.0124171
0.00271831
0.00530586
0.00300138
0.00362214
0.00245934
0.13472
0.0190428
0.0197861
0.141583
0.133964
0.138842
0.0264237
0.0363311
0.0334506
0.118287
0.13998
0.0988296
0.108278
0.0812917
0.0449493
0.0101199
0.0125835
0.126312
0.0389506
0.0123044
0.00543215
0.129555
0.0175811
0.140931
0.0237883
0.0182269
0.00237774
0.0210815
0.0990488
0.114975
0.130695
0.101125
0.118679
0.071312
0.0796145
0.0216526
0.0768746
0.0818017
0.11329
0.0158589
0.0319963
0.0359272
0.0178539
0.00346609
0.00287157
0.00288548
0.0874483
0.00127142
0.00851854
0.0335283
0.135957
0.0139206
0.0179997
0.0248008
0.0227231
0.0301162
0.0290023
0.068016
0.0168965
0.0187144
0.0559936
0.0651824
0.21826
0.0918611
0.0920282
0.0162717
0.00236832
0.00165013
0.0333392
0.00470828
0.0428329
0.0015058
0.0111363
0.00977502
0.0589037
0.00103445
0.073145
0.190548
0.108261
0.139494
0.0218727
0.00120433
0.0106282
0.184408
0.167237
0.0259005
0.0721565
0.0245101
0.0182533
0.0143538
0.0103138
0.104304
0.00500111
0.00423621
0.00785143
0.00720341
0.0260058
0.0262339
0.0229522
0.00593492
0.00260033
0.102258
0.00450435
0.129362
0.0231518
0.00772459
0.0185143
0.151759
0.00390525
0.0504911
0.00612442
0.044141
0.135196
0.00173953
0.219517
0.258072
0.00355048
0.00202072
0.138925
0.141075
0.141424
0.141107
0.14046
0.00588469
0.135395
0.287809
0.222612
0.136121
0.00401348
0.00224575
0.134548
0.0989501
0.140075
0.140415
0.214937
0.184799
0.0054804
0.00638948
0.00305873
0.0116456
0.00407377
0.00460565
0.00550352
0.00266772
0.140896
0.140857
0.0139559
0.0141013
0.0293758
0.0032978
0.00576616
0.0104194
0.0281533
0.000998009
0.0739341
0.00268449
0.0147313
0.00746761
0.00810695
0.0556908
0.0205186
0.0630182
0.0751663
0.0298993
0.0037855
0.0059069
0.00483644
0.0357955
0.00628488
0.00437243
0.00172962
0.0476622
0.133977
0.0511543
0.221931
0.00821469
0.00733166
0.0276386
0.0498638
0.00221705
0.123807
0.00504421
0.126736
0.118282
0.00280854
0.00545307
0.0141937
0.0486048
0.117613
0.0100188
0.0130623
0.134354
0.136092
0.112871
0.00653679
0.0875577
0.00444029
0.0113459
0.0134525
0.193191
0.261301
0.00138445
0.0141037
0.0131272
0.041242
0.0198445
0.00349501
0.0126193
0.107094
0.0133772
0.114423
0.011498
0.0349678
0.00569005
0.0190435
0.00754224
0.137666
0.0479459
0.149563
0.137687
0.136992
0.00365402
0.0152617
0.0132801
0.0717708
0.0156246
0.0186293
0.0870018
0.0760707
0.00837258
0.00801688
0.0125583
0.019756
0.0042135
0.0722963
0.00251138
0.00269258
0.00670397
0.00396268
0.137168
0.138388
0.141875
0.138964
0.141797
0.00413608
0.00731489
0.0118567
0.00475249
0.14383
0.00470413
0.156086
0.0049352
0.0103804
0.00129929
0.0121
0.00593906
0.00133091
0.0050487
0.00264126
0.00157915
0.00596323
0.0857132
0.074652
0.0666465
0.0483086
0.047237
0.112399
0.112026
0.012662
0.00673486
0.0138201
0.0424069
0.146222
0.0891468
0.0129605
0.00132011
0.0119138
0.145521
0.00512661
0.00477147
0.0690998
0.138422
0.00306915
0.00155486
0.0033383
0.0956771
0.00146711
0.139637
0.134951
0.040013
0.145959
0.145666
0.00279569
0.000822986
0.0455114
0.0202104
0.00266447
0.0258406
0.00656588
0.0703208
0.145644
0.00192877
0.0461445
0.0341802
0.0854353
0.0320463
0.0150487
0.00789604
0.0146568
0.0111658
0.00863455
0.00950984
0.0227293
0.0373833
0.0409993
0.138441
0.0348865
0.0655407
0.0185859
0.139975
0.0234783
0.0132278
0.0221773
0.016709
0.156177
0.0117934
0.0138987
0.0311368
0.0420416
0.144703
0.018875
0.0886838
0.0178436
0.0894279
0.0151224
0.140655
0.141094
0.140682
0.0518514
0.00905774
0.0190078
0.0880565
0.0263944
0.0077937
0.0232586
0.0318689
0.00101014
0.0381824
0.0195101
0.0471086
0.0130323
0.0505386
0.0428913
0.345708
0.0147602
0.0555455
0.0338952
0.00458726
0.0469286
0.0739446
0.0128881
0.0272964
0.0128402
0.0451383
0.0142951
0.0298117
0.00685634
0.00396289
0.0337927
0.0142711
0.00906006
0.0340778
0.0398047
0.0208456
0.0399885
0.054717
0.130624
0.0116293
0.0022452
0.00296847
0.157385
0.0105998
0.0163608
0.0127107
0.0737376
0.128477
0.0108346
0.0247476
0.010025
0.00485166
0.111218
0.0882919
0.140139
0.109668
0.0176233
0.00679929
0.0210498
0.00789759
0.123299
0.0161564
0.0929352
0.138401
0.017972
0.139588
0.00661548
0.119846
0.0148132
0.0360279
0.0167976
0.00358988
0.00628787
0.0232443
0.00647563
0.0281036
0.139388
0.0119637
0.00867216
0.00266665
0.0243817
0.0956613
0.00266123
0.0460739
0.0442655
0.0147668
0.067793
0.00492462
0.0095084
0.00804455
0.00494506
0.0289272
0.022971
0.116775
0.0293246
0.02859
0.0141747
0.0126683
0.00449955
0.0282116
0.00991395
0.00671945
0.00190638
0.0372247
0.0149857
0.0077531
0.130006
0.136665
0.0129309
0.00651249
0.00832967
0.0133452
0.108338
0.0146602
0.0138602
0.0147784
0.00123986
0.130879
0.00157106
0.0770972
0.00529691
0.116051
0.00919621
0.0106238
0.0037015
0.00127199
0.107223
0.0943717
0.0320435
0.00363273
0.00851603
0.00598459
0.00159249
0.00475207
0.00269975
0.00218087
0.00611314
0.00357036
0.00488261
0.00539178
0.0994324
0.0919501
0.00106695
0.119639
0.142703
0.120218
0.0208407
0.00284886
0.00516623
0.0242442
0.0177839
0.12375
0.0195688
0.150504
0.0250874
0.0200536
0.0135272
0.00199113
0.0319367
0.0377519
0.031803
0.0189071
0.0172437
0.0189688
0.0064266
0.00139767
0.0271315
0.0535746
0.0333073
0.0142471
0.0168474
0.0082393
0.0324649
0.139566
0.00135017
0.00192626
0.00360262
0.140033
0.0119868
0.0196132
0.00101577
0.0084728
0.00202321
0.0367919
0.00172603
0.0173104
0.0168276
0.0684762
0.0133291
0.00262608
0.00122736
0.0281394
0.010387
0.0900647
0.0295076
0.021575
0.0246536
0.00458159
0.0206507
0.0203979
0.0323084
0.0364418
0.00132471
0.00361367
0.0169564
0.00222818
0.00403301
0.0422297
0.025506
0.00222824
0.0161044
0.0166868
0.137244
0.00770724
0.0093881
0.0304983
0.0113071
0.0112971
0.00471821
0.037678
0.00426862
0.0445386
0.00821604
0.00817642
0.024631
0.0230435
0.0319758
0.00109986
0.0571092
0.0262028
0.221777
0.027846
0.0285396
0.218685
0.126394
0.0603694
0.00999441
0.00144306
0.104431
0.0738526
0.0959237
0.00158952
0.0161172
0.0164373
0.0149029
0.0738986
0.0466667
0.00191912
0.139218
0.0153753
0.00120566
0.00270975
0.0146996
0.071755
0.0243605
0.0234002
0.0112131
0.128887
0.0118079
0.0225222
0.00994036
0.0201849
0.0108565
0.0235609
0.00607937
0.00257323
0.0203414
0.057685
0.00914116
0.0191082
0.00702003
0.00187911
0.0173005
0.0268837
0.023869
0.0104041
0.0167259
0.0351734
0.0329293
0.00870127
0.0362485
0.0532948
0.0226221
0.000952815
0.0155434
0.0304425
0.111422
0.0107209
0.10715
0.100098
0.0944981
0.277796
0.0142687
0.273011
0.35032
0.00153842
0.0327844
0.00474666
0.0195214
0.0018402
0.0058183
0.00863963
0.140814
0.00767159
0.00997503
0.00545266
0.0502408
0.0253374
0.0119737
0.00379549
0.0251515
0.0343024
0.25574
0.0545451
0.0274092
0.0253479
0.0301311
0.0461702
0.0304602
0.0494493
0.116664
0.0467142
0.113636
0.05387
0.00841416
0.0122009
0.0100709
0.0189008
0.0112404
0.0126598
0.039701
0.0245495
0.135265
0.0025093
0.0822502
0.00847599
0.00603158
0.00870296
0.0585571
0.00943024
0.08305
0.00167414
0.0583553
0.0312464
0.0552626
0.0835776
0.0282984
0.0362813
0.0106185
0.0403428
0.0361395
0.0925979
0.0131772
0.0148911
0.00648194
0.00988381
0.0155489
0.00974225
0.132203
0.00195893
0.00146674
0.00600011
0.0153863
0.0391119
0.00422266
0.0736764
0.00385323
0.0203157
0.00227071
0.00509539
0.0911633
0.0137683
0.00145297
0.0122489
0.004883
0.0293108
0.0104649
0.0210074
0.00485299
0.00219405
0.00104718
0.0145822
0.0059105
0.00101817
0.00131488
0.00900123
0.0082934
0.140495
0.140222
0.140435
0.0259323
0.00210919
0.00612694
0.0116305
0.00300309
0.0335801
0.0311351
0.00607156
0.00928783
0.0564989
0.00971202
0.0109038
0.0252487
0.0236073
0.137953
0.0144246
0.0503566
0.0231188
0.029545
0.00195599
0.0380716
0.00484135
0.00238589
0.00187688
0.00348502
0.00246929
0.00182313
0.0183633
0.00411171
0.0317974
0.0287307
0.0256484
0.0276169
0.026723
0.0121483
0.0240982
0.00830793
0.0389823
0.00790487
0.11624
0.190402
0.00654969
0.119702
0.00112558
0.00526422
0.0245292
0.0428837
0.00960916
0.0387047
0.032497
0.00583716
0.00767292
0.13008
0.0104322
0.0263429
0.0260845
0.0573739
0.00752338
0.0287812
0.00353118
0.0274568
0.00241416
0.141117
0.00492228
0.0025691
0.0167678
0.0100826
0.00172549
0.00547593
0.00718009
0.141123
0.141327
0.00275039
0.00270933
0.135966
0.0153761
0.122224
0.00394788
0.0103124
0.01251
0.00184318
0.0371647
0.013038
0.0202618
0.0151373
0.0129298
0.0153061
0.0145933
0.0044606
0.0034061
0.0195437
0.0159629
0.0179008
0.0204008
0.0123313
0.0139508
0.0156273
0.00263624
0.00381594
0.00448653
0.11951
0.117386
0.00332056
0.118319
0.00473956
0.00496272
0.00110262
0.0221389
0.0185864
0.0225681
0.0109314
0.012223
0.0147286
0.0154283
0.00132336
0.015982
0.00122076
0.00878372
0.0101001
0.140349
0.00166112
0.139551
0.0079206
0.00649461
0.00316535
0.0155617
0.00953112
0.00168226
0.0409676
0.0100084
0.00376481
0.00702837
0.00683176
0.00593156
0.0128169
0.0063584
0.0140105
0.00747549
0.0140604
0.0130017
0.0497367
0.0463817
0.124135
0.0162592
0.00320709
0.0299038
0.0340043
0.00857526
0.00459228
0.109544
0.11201
0.014622
0.00208544
0.0107157
0.0690044
0.00468786
0.00128098
0.0097607
0.00908663
0.00119615
0.00216023
0.0197402
0.0024035
0.0185514
0.0372874
0.00254725
0.00134845
0.0417849
0.00865149
0.0676252
0.0737615
0.0100313
0.0219858
0.021688
0.026315
0.0345283
0.0310893
0.0367232
0.103127
0.00849418
0.0227469
0.00997212
0.0303597
0.00378513
0.0115567
0.00267042
0.00272786
0.0108674
0.00384292
0.000930933
0.00260388
0.101677
0.00599491
0.00193378
0.00632488
0.0010472
0.00488961
0.00379519
0.0923821
0.00129333
0.00132846
0.0113336
0.009263
0.0192511
0.12438
0.00795472
0.123163
0.0809132
0.128696
0.0208414
0.0108772
0.00374564
0.135284
0.00104061
0.136498
0.0823116
0.0249839
0.0155774
0.00362598
0.00109872
0.00192935
0.0222579
0.00524597
0.00167063
0.00370989
0.00188386
0.00407656
0.00115282
0.00430615
0.00579928
0.0046532
0.0115268
0.0122393
0.00525528
0.0110878
0.0124872
0.0717303
0.00201875
0.0373308
0.139242
0.0175787
0.0131213
0.138413
0.00174772
0.00398708
0.00670498
0.00310946
0.00931085
)
;

boundaryField
{
    frontAndBack
    {
        type            empty;
    }
    outlet
    {
        type            freestream;
        freestreamValue uniform 0.14;
        value           nonuniform List<scalar> 7(0.127919 0.133273 0.229412 0.217074 0.41356 0.399152 0.0920282);
    }
    walls
    {
        type            fixedValue;
        value           uniform 0;
    }
    inlet
    {
        type            freestream;
        freestreamValue uniform 0.14;
        value           uniform 0.14;
    }
    airfoil
    {
        type            fixedValue;
        value           uniform 0;
    }
}


// ************************************************************************* //
