/*--------------------------------*- C++ -*----------------------------------*\
| =========                 |                                                 |
| \\      /  F ield         | OpenFOAM: The Open Source CFD Toolbox           |
|  \\    /   O peration     | Version:  2206                                  |
|   \\  /    A nd           | Website:  www.openfoam.com                      |
|    \\/     M anipulation  |                                                 |
\*---------------------------------------------------------------------------*/
FoamFile
{
    version     2.0;
    format      ascii;
    arch        "LSB;label=32;scalar=64";
    class       volScalarField;
    location    "239";
    object      p;
}
// * * * * * * * * * * * * * * * * * * * * * * * * * * * * * * * * * * * * * //

dimensions      [0 2 -2 0 0 0 0];

internalField   nonuniform List<scalar> 
2283
(
-0.654793
-0.895734
-11.1248
-11.258
9.47285
9.88804
-4.91534
-4.6251
-18.33
-164.143
-205.452
8.0866
-7.86983
-8.74593
10.328
0.427138
-1.48771
14.1973
-1.39333
-26.4867
-12.6192
-12.6988
-1.26631
-1.30581
-1.37435
-1.72263
0.806239
-26.3728
1.18618
-16.2035
-16.1299
3.09331
3.65526
-1.4766
-1.16274
1.05215
0.826579
-1.56201
-1.49892
-2.07995
-3.25427
-8.36136
-28.6524
-28.1447
-29.6961
-30.7333
-9.39365
21.272
21.9924
-0.0436545
10.4256
-0.272711
-32.9732
-22.7153
-13.2772
-20.0658
14.4535
13.9843
-14.9046
-12.12
14.6912
-22.8893
-20.5495
-26.5565
-11.1711
-2.49721
-2.63482
-24.9526
10.229
-21.9913
8.30969
2.26094
-8.72333
-0.848196
-4.69371
3.0735
0.402357
-0.496228
-2.52758
-2.33555
-0.423074
0.187146
-21.9574
0.62448
-22.3411
0.542803
-39.2231
-21.0614
-26.0253
-25.9076
-9.05362
-90.0677
-21.0688
-1.68498
-1.40952
0.902237
-7.45593
-17.5602
0.639878
-18.1376
-14.3023
-10.9085
-2.2339
-25.0927
-27.2421
-94.7136
-2.77473
-2.3903
7.92294
7.71264
-2.88255
2.31634
1.71682
2.09232
0.409332
-56.839
11.2717
0.666116
-18.8781
-0.502631
3.0515
-19.511
-0.575921
-0.982848
-27.785
6.78695
-9.74676
-19.0355
-10.6977
-27.1378
5.95535
7.2763
9.26548
-4.59211
6.04139
12.491
-1.7624
-1.95597
-10.645
5.30557
15.1226
-2.57639
-5.01355
8.07823
13.1556
-10.9906
-30.9372
-0.802652
-1.04298
-4.66291
0.807393
12.1621
4.11529
3.45089
-10.0248
5.71903
-16.3444
-10.1797
7.19205
-16.0844
15.5579
-2.25898
16.3851
-33.7797
-7.41803
-30.2103
-6.17845
-15.9004
-3.274
5.58168
-28.8261
-28.5394
-12.0613
-15.9886
-4.72216
6.24766
-27.9526
-27.4344
-27.4771
-10.5225
-9.29778
23.3694
24.9374
-24.7298
19.2571
19.7909
-23.6462
11.6313
10.7679
-4.00981
-9.02325
1.19767
-2.34849
-2.83879
20.5844
19.0114
11.4843
11.3062
-22.958
-23.5258
10.7762
10.6375
-10.2165
-24.2182
-10.5273
-10.7407
-74.4732
0.614015
11.9776
20.8597
-1.68849
-1.61502
-13.9428
8.80721
-11.4597
7.4023
-39.9096
7.87096
-13.8162
-14.5706
-9.80579
8.24965
-15.1144
-11.1728
8.29017
-15.9021
-9.97653
-15.1762
-10.92
-0.153571
-15.2065
7.72406
-12.4396
-24.1544
-23.4115
-3.6231
-14.3704
8.46016
-16.3475
-1.61288
-8.92192
8.09756
-15.0777
-2.07206
-9.41728
7.7214
-15.147
-15.4377
6.99505
2.83869
-1.10196
-20.7299
-20.5135
-7.95023
-19.8069
-9.0369
-22.2902
8.978
8.16993
-38.8634
-38.7395
9.03306
11.6607
-9.82959
-90.8261
-16.5061
-6.72557
-0.752871
-14.0982
-0.689407
9.83376
9.64159
11.5801
5.70277
12.4102
5.6002
-14.6602
8.93263
-40.2603
8.50757
8.52517
-49.0849
-15.2992
-10.3153
-9.37924
5.54988
-23.2768
-13.1506
-13.2031
19.7076
19.0333
2.34727
-23.8552
-30.7298
-16.3197
7.46254
7.26858
-28.6551
-4.79447
-29.2608
-31.8004
7.37207
7.52443
-1.4266
-1.46995
-1.14314
-0.881666
12.8872
-8.88177
-10.0847
-0.470065
-2.2727
-0.940881
5.49967
4.41156
17.8504
16.9511
-22.0058
-1.9343
5.82531
13.0001
-11.205
-2.08934
-11.1523
11.191
11.2497
10.8762
10.74
-20.6698
-12.5245
-17.3471
17.4199
18.0871
10.0349
-1.4931
-1.65088
10.3234
-19.8028
4.30051
-10.9451
-4.95479
3.34532
-58.3321
-65.6662
3.86152
-10.4059
-12.5674
-18.2053
-14.8462
-22.0358
6.16029
-42.7948
12.4582
-4.29659
-1.30311
12.0948
4.62494
8.58424
8.94958
8.4898
8.70017
11.4905
-46.5765
-44.2235
-3.86451
-9.69438
14.8965
-22.1137
-74.1142
11.4635
11.6872
-28.7757
-3.35288
-28.9458
-19.1243
1.47006
-3.1343
-56.5666
-65.944
-82.6193
-16.1704
2.60929
-1.14236
-0.357314
-0.259318
-26.945
-1.35946
-15.7671
-15.1803
9.99194
9.81383
12.0835
-9.80987
-19.1376
-28.0786
-9.72264
-27.3765
-18.6637
-77.6544
7.22646
29.6772
13.0063
12.8221
13.2683
28.3798
13.6029
4.91336
-11.4596
-10.9573
-11.2953
-21.3188
-18.117
19.2895
5.9198
11.147
11.3192
-2.35458
10.6537
10.2979
-9.84089
17.1999
22.3185
4.67802
-1.47328
29.1596
-1.31851
-1.03741
-1.00401
16.8882
11.5016
-1.16761
7.31872
6.60566
11.0934
2.54754
-1.4054
-1.51039
-1.48918
8.70411
-20.5508
5.28193
-2.5403
-1.16453
8.1672
1.21285
7.35417
9.35039
-11.8822
-9.60277
5.60421
-11.7586
9.45856
5.94942
12.2858
-1.22905
17.9668
5.56206
14.4956
-1.42171
-2.01333
-1.68837
19.7001
-22.5527
0.364772
9.66699
13.3986
-16.1123
-1.33737
-0.52924
0.228053
-1.27001
-22.3839
-30.2597
-1.23985
1.96653
0.829976
2.2339
1.97994
2.70232
5.82802
-15.5882
-5.32908
-0.764579
5.16228
-1.53766
-1.60597
-16.0029
3.3847
-4.46787
23.7099
0.475281
0.883654
0.380635
0.614225
-1.42064
-1.2801
-17.254
-1.12011
10.4953
-1.33608
-17.346
-13.6019
-1.8044
-1.63836
-13.3635
-14.1078
-33.3167
-1.85256
-1.61665
-1.69911
4.17946
-1.27335
-1.70147
-1.83494
-2.23867
0.0864856
-0.0222862
-33.9356
-26.3252
-24.1945
-24.2029
-26.479
-1.08883
-1.11835
0.299538
-1.6674
-0.764144
-1.9925
-2.7829
-2.77843
-1.80759
4.57146
-10.0559
4.89434
2.85042
-2.58936
-2.36257
-2.31158
0.624432
-2.61161
-38.7738
-36.0957
-16.1161
-20.6561
-14.5899
5.37565
-11.1185
-1.94867
0.511916
-0.0347359
0.248194
-1.45526
0.362176
0.342181
-0.0206349
0.448938
0.259974
-0.95852
-0.0675551
-1.54103
9.842
-12.2556
-12.4903
7.48534
-12.8272
-12.4842
7.58339
-1.91982
-0.947906
-1.21622
-1.57846
0.497339
1.47422
8.65549
-0.824743
10.1413
4.2033
-4.31252
13.435
-3.1026
-2.81236
2.21189
-1.52238
8.32516
13.5416
-4.56697
4.13848
-1.77211
-3.10534
-3.85933
11.1244
-3.28531
-1.07734
11.1013
4.5552
0.603083
0.476716
-1.61323
0.848076
-2.60672
-3.1146
2.03713
1.57093
14.8446
-4.42044
-2.02028
25.9736
-2.44411
-0.701972
1.422
-15.4807
15.0292
-15.1204
25.639
5.66109
-1.34172
-0.872162
-1.14487
-1.2246
-0.126442
3.45807
-1.15966
-1.15414
-0.874381
0.377272
0.110861
-20.2875
-1.22654
-1.61108
-1.19592
-12.9731
-21.233
-11.914
-3.13342
-6.33677
15.4315
-1.42825
-1.23315
-12.9315
4.89184
2.11999
-2.80553
-20.1715
11.6496
15.9385
-5.67366
1.36033
1.01982
-10.4306
5.4963
0.0192718
-2.62354
3.80594
-1.50118
-1.76559
-9.38268
-2.2203
-1.30789
-7.87375
14.1661
-1.40531
-1.12618
-13.8604
-22.1253
-1.60942
-16.3039
14.2939
-2.42751
-2.62614
-0.558627
0.200943
-18.0786
-1.11678
-15.4611
-1.36112
-0.746731
-15.5916
-0.369579
-15.1495
-10.2715
-16.4586
-16.077
15.0247
12.6537
17.0196
8.34197
-43.6425
-0.961533
-0.762966
-1.62806
1.07067
-2.28083
14.2184
-15.5814
-15.1379
-0.861446
-3.08715
-15.2982
15.785
-13.4045
-12.1941
-11.4899
7.52886
-13.3419
13.8023
14.2097
14.4678
21.9235
1.19817
14.2763
0.915366
5.67399
-10.4777
8.28118
13.5371
-10.4481
-11.9403
-1.15438
7.90408
-1.32857
-0.21823
-12.0124
-14.2624
-14.2811
-16.9993
-17.1031
-0.505296
-17.465
3.27396
-1.32779
-1.1926
-41.4179
-12.1061
-12.7857
-13.5991
-12.4451
-11.5884
-0.514108
-11.9991
-0.599672
-0.0542681
23.1194
24.1171
-22.0917
0.192794
-0.0476757
-11.3835
-0.363745
-2.05013
2.22738
-39.6945
-37.4296
-22.6361
-13.0944
-6.25803
-1.46971
-1.36536
4.79872
13.9499
-7.25991
-9.94334
-1.19705
-1.12684
3.2511
-13.3958
-0.937604
-22.4848
-39.4746
4.0923
-13.326
2.51251
-30.5612
-17.1057
-0.888959
17.9793
14.182
10.3256
10.2583
10.7228
-36.6539
1.8864
4.0378
-1.01346
-0.945054
-0.580684
-2.12739
-2.1885
-18.0942
-17.3448
-0.580875
2.69153
-0.290215
-29.9071
4.28704
1.32639
-9.88019
5.19746
-9.65256
-0.172689
-13.7794
-0.318523
-23.4235
-28.3243
-30.6015
-30.3896
3.62781
-47.5042
0.714071
-22.7411
-3.36133
3.68965
-49.1932
-47.1469
-19.77
-2.80012
-3.47413
10.7526
-1.0538
10.7535
19.8092
10.8593
15.7878
-36.1211
15.5338
11.9004
11.7078
12.2507
12.2413
-111.494
-23.4307
0.544522
-2.08518
-10.1371
1.50478
-10.7402
1.1914
-3.55892
-1.43287
1.23766
0.903742
-1.18711
0.78376
17.1178
0.440377
-1.9351
4.98573
10.4021
-0.023739
-2.77275
-9.30039
-38.5731
-0.518156
9.81748
-1.00523
-32.2419
-0.639914
-2.61881
-35.9544
19.9843
-19.0893
-11.2996
-2.97108
-12.9089
-14.1159
18.6601
18.342
-17.3139
-19.7625
-2.05138
-19.0209
-2.89587
0.104645
-0.0939852
-2.91874
-2.70126
-3.01398
-25.1393
-1.58807
-1.44567
-1.27827
-0.619366
-2.72902
-2.31266
-1.0027
-2.76978
-0.940681
-44.5071
-2.73223
-2.0933
-45.3177
-14.2234
11.3592
-4.14168
-28.0324
-4.25328
-2.82996
-1.46568
12.0418
-34.0873
-1.75445
1.227
8.53008
9.82681
1.58716
-2.22714
-3.55651
-1.92988
-3.70832
9.74286
12.8789
-11.6656
-3.16723
-11.4409
-17.0454
-22.1417
-3.37605
-41.4047
12.9703
-41.1766
20.025
22.5139
12.2811
12.6445
-43.8173
-5.35557
-1.18987
-1.14043
8.50095
-1.18552
-33.1946
-34.1318
-10.2004
9.11257
-20.2293
20.3748
-10.6312
-2.37226
-5.96673
20.0831
-5.99044
19.2477
18.2598
-2.88323
-40.8986
6.3593
14.4692
0.514873
0.809009
14.3831
-10.0271
13.6448
22.6643
6.14023
11.6021
11.2764
-14.194
14.285
-9.19254
32.7336
17.1319
6.46349
8.96209
-8.58944
11.8997
-1.74338
3.17025
10.6676
-3.17362
6.84152
6.47511
-0.423457
-0.16364
6.58172
-39.7964
-1.41628
-10.6471
-3.96463
-6.07883
6.85021
-24.9176
8.95445
-43.5145
-23.7968
-14.8056
-14.4985
-14.5356
-1.19131
-43.8096
-11.5337
8.32639
-48.8067
-1.10544
-17.909
-47.1374
-6.33687
1.65967
-14.9239
-15.0189
-23.071
3.1411
0.300837
6.78152
-4.96223
-5.13858
-9.91254
-8.08901
-19.8418
0.336638
-10.4985
-9.68727
0.021351
5.92087
-3.90074
-3.28307
-9.48439
-3.10386
11.5009
-3.34269
-9.11698
-7.89905
-3.01731
-2.71365
-28.647
1.86887
1.25994
6.08527
0.442104
1.0172
0.451069
0.225297
-22.5062
-22.7727
-28.6402
-11.3384
-35.3783
-2.4129
-2.42412
-36.1789
-4.25245
-10.8012
-23.4626
6.96592
15.8975
7.64162
7.44483
16.4622
-0.557876
16.3892
17.9633
-23.5706
-22.933
-11.7383
-5.69319
18.582
-33.6882
-13.8038
-13.6408
3.42682
-0.860997
-2.87426
-6.28238
-7.42731
-22.0229
13.9445
-10.9863
-11.8505
3.06082
-18.1403
-18.5368
-18.5979
-11.6779
-10.0482
-58.2633
-3.06072
16.9506
-2.36827
-1.43555
-2.67834
-1.80713
-2.36261
-2.13521
-1.98574
-2.87948
16.2066
-0.67148
6.22825
7.1239
6.74105
1.60415
12.2532
12.2279
11.9058
-2.7059
-8.55625
-1.48451
-1.29004
3.9695
7.61275
4.78471
5.51499
-12.1098
2.86585
7.35532
2.98995
4.10861
3.67489
11.4024
-0.955768
7.62544
-1.11451
-3.28767
-36.6149
13.2213
4.98289
2.8006
-35.9617
-5.38306
-22.0204
-11.8179
4.39213
-2.68373
10.5632
-8.88486
5.67887
-1.80975
5.89962
-8.03589
6.35624
6.44098
0.131773
7.29618
-1.22326
5.61787
-9.33634
2.7723
6.64433
-3.79315
-3.93918
-20.4635
-1.97623
-19.7443
4.84531
1.40488
-20.5112
-7.36304
13.4467
13.4507
16.259
-25.0555
-29.3403
-26.2889
25.9539
-36.7249
-1.11897
-48.9859
0.201446
-0.742004
-9.87696
-1.11175
-51.2845
-25.5447
-15.1252
-50.0163
17.2754
16.996
-73.9211
-52.3753
-17.9068
-18.5834
-26.7367
-27.3422
-1.90612
-27.4059
-27.8908
-1.39586
11.9935
-1.44657
-1.87411
-0.420123
-0.0678636
-26.0941
-2.60586
5.68065
-1.22045
-2.30372
9.45342
-27.1467
16.6804
13.1434
-25.37
7.18612
-16.5017
7.26173
-0.675324
7.14146
-1.1243
7.44991
-16.6631
-15.4814
-1.58862
-1.41593
-28.5738
-30.1919
-42.5537
-12.6138
-6.85692
-1.53362
2.60111
-15.9988
16.8115
2.0987
-2.48393
-1.44937
-16.7188
-10.0077
-68.7759
-2.73053
-90.1142
-84.2252
0.881519
1.26239
0.946834
1.30142
-24.6843
-24.8874
-15.5377
7.03473
7.05839
-1.2012
-1.55633
-49.2056
-1.3784
-5.98384
10.5585
-0.974185
-17.7805
-15.2464
-18.1173
1.022
0.951292
-1.15522
6.4121
-1.51865
-1.209
5.03793
-55.1585
-16.096
-18.1103
-10.1856
-24.267
-10.3815
-2.15415
7.91287
7.40156
24.618
-7.53865
-5.93482
-4.99906
-74.7022
10.0572
9.80692
-13.8219
9.89748
6.25793
-17.5276
-10.4383
-8.16922
-22.3182
-2.06988
-0.793436
-0.854672
-2.69461
14.0943
12.2779
14.3148
-2.30274
-19.1494
7.08724
24.5652
-1.69081
-2.06413
-1.83703
10.308
10.6943
-58.7711
-1.36011
-1.70669
-2.99266
6.79348
-1.16012
-13.9745
-13.9354
-2.74462
13.997
9.48444
-0.464212
-2.85556
11.3212
-14.9029
-0.774828
-1.671
3.44879
-19.3383
-39.3321
-38.0274
5.50698
5.05257
-4.09428
10.2455
9.9764
-2.91901
-3.83171
-0.362056
13.1537
-14.4018
-14.0383
-6.76756
-0.413208
-14.517
-1.26551
-1.21651
6.6093
9.09047
9.1657
-5.88308
6.48421
-12.4217
3.31744
-5.5339
14.2887
-0.742808
14.2988
14.5412
3.86654
14.6098
-1.03323
-0.96388
-5.07921
-13.4363
-4.96339
-0.996532
-1.14541
19.7358
-1.14018
-1.20343
-5.20102
22.4926
12.2511
12.0692
-12.7274
-19.7704
-19.9036
-11.0554
-8.88233
-12.4021
-35.2244
-1.05605
-0.215531
-19.2295
-12.5744
7.49922
7.76247
7.8094
7.48151
7.94336
20.4926
15.2665
8.19552
7.55631
-1.77817
-0.458828
-0.215358
16.8792
-50.2953
-8.5897
5.16665
-112.339
13.3573
-12.7184
-34.1859
-33.8327
7.7667
-9.41746
-1.39624
-2.60757
-7.76063
-2.08478
16.0408
-9.13423
14.4133
-0.83173
-0.106645
21.0753
12.4301
15.6448
16.1962
-8.16306
11.7936
6.40047
-14.0889
-14.0009
-14.0298
-12.3563
13.7598
13.9008
-6.56548
-29.3595
-45.4492
-8.21194
-69.6304
3.36257
6.72679
-10.2904
-26.6783
-2.88956
-56.4395
6.22035
-10.6539
12.8855
-2.82068
-10.1458
-2.09485
-3.5993
-10.2413
-56.8159
-3.22365
-0.655572
-0.398931
-0.234438
-0.033439
7.09943
2.09605
-0.247576
-0.456905
1.76085
11.275
-15.2654
1.77387
-9.53124
-1.25251
-1.34411
-4.47698
-2.95089
11.2469
-15.3798
-33.4722
-24.5351
-17.1105
-10.5549
21.8909
11.6235
-0.882307
-1.1315
14.4979
-22.0501
13.1296
21.2461
19.523
20.5612
-59.1626
-15.1076
0.814266
-98.8079
18.2007
-9.50527
-9.71836
15.1878
18.8573
13.5823
7.68532
4.6569
5.35314
5.63793
5.15997
-19.3536
-9.91067
-10.1269
-2.78624
-16.6253
-4.57554
2.44699
-2.74494
-14.9598
-84.5158
1.13564
0.069951
-0.136517
-3.65764
-30.4148
-3.76892
4.26987
0.431944
-25.5018
-26.0371
16.5134
5.1837
23.3836
22.2785
-4.42862
-3.98068
6.5956
-14.3549
-18.0108
-20.6681
-10.7806
-18.2283
-0.32741
-0.826506
-36.5636
7.6728
-18.8425
18.209
7.8071
-13.553
-18.4126
5.6216
-10.2907
5.05805
-10.5247
18.973
7.44301
-12.972
12.2567
-3.47458
8.81547
-1.35521
-3.59338
-1.20265
-13.7141
-14.717
7.93406
-16.9155
8.11622
8.11524
-18.8187
-21.2393
5.93041
-17.8457
-11.7488
-12.347
11.9102
12.9838
-21.8415
12.315
-33.5756
4.33702
-1.35324
-1.34692
-1.94069
-3.08018
-1.77656
5.05325
-17.1436
-11.3329
-17.5933
-2.03645
-21.4991
-2.29998
-13.7426
21.7773
-29.746
20.7982
-12.0936
-13.6569
-21.1184
-34.5817
-33.2602
-21.2239
2.04509
6.55885
7.08559
13.9189
14.4216
6.12498
6.50547
-31.8868
-17.8755
-32.1898
15.2978
-1.79451
1.37771
-34.1749
-21.1799
-15.6074
-1.71229
7.14935
7.29382
1.35369
0.165684
-34.3985
-34.9837
-12.8656
-15.5375
-11.1348
-1.33104
-0.251638
-11.2451
-1.75931
-1.58098
-11.7202
-11.0812
-10.4713
6.93679
-10.322
-34.927
-13.668
2.50483
-0.480246
-12.5464
2.21167
-17.0209
-13.3216
-17.5573
-16.2565
-13.2873
4.32049
-37.6359
-36.9171
-38.0275
4.60843
12.3273
12.3533
-2.27857
12.8063
-10.6509
-21.3895
0.532336
9.14652
-14.9762
9.41773
9.30901
-1.08353
-20.8728
9.3567
17.0563
17.1652
-1.08807
9.5275
-13.6038
-16.8293
4.25784
-11.918
-1.2235
-0.992272
-1.18893
-0.488608
-13.0886
4.08012
3.58114
-25.5883
-14.4038
-24.9328
10.64
-13.3333
10.0051
15.5315
9.95072
-24.7553
10.234
10.3905
-3.85884
-16.5016
3.08731
9.16364
-28.1337
-14.2963
-1.01665
-13.8899
9.06064
-13.4934
11.9222
-13.8414
9.27645
5.2202
-12.1222
15.809
-13.5984
-14.5081
16.1959
11.0709
8.22288
11.5217
15.0541
-4.03346
-14.5625
-28.4854
-22.303
-1.64494
-14.6062
-11.8806
6.10654
5.84894
-4.60256
-20.8212
20.402
-12.6534
-27.7447
-0.554113
-0.794625
-0.606426
-0.452624
9.11307
-12.9565
8.95964
-31.7492
-3.95686
25.2642
-1.13339
-0.955483
10.9134
-0.882643
-15.526
-3.05137
7.24838
11.0556
-20.6028
16.7972
21.3617
9.95863
-21.9547
9.51142
-1.14232
19.3571
-21.9558
18.9709
9.61924
-0.376218
-22.7335
17.2575
17.2038
-14.6552
11.4627
7.14172
-21.071
-47.4293
-15.6404
10.8195
11.1413
-8.65526
-11.8513
15.5358
16.3392
21.8927
-17.0031
19.8748
-13.398
-10.8898
-15.5851
18.1926
-23.8425
-13.8647
-1.61149
-1.87739
-23.3013
-12.5029
-20.75
-23.8927
-10.9117
-20.7317
6.39903
-24.7522
-8.57081
1.26948
-22.5702
0.330215
6.9543
5.88494
-50.2912
12.3892
-14.5894
-16.1812
0.948042
0.418931
11.2517
-15.1706
-32.1354
-34.2059
-17.0611
-18.6873
-26.6882
-30.1015
-19.2681
-220.391
-15.2182
-19.5146
-0.82257
-1.0288
-13.1956
-0.712248
-1.97486
-1.30923
14.8536
-19.2896
6.78979
14.8141
-9.92639
-1.06114
-16.0366
-1.03266
-11.7635
11.2876
13.3603
-18.3204
12.8702
13.7272
15.1387
-33.0445
-31.7772
-30.7689
-15.9954
-26.9492
10.2288
-11.4945
9.7474
-15.5096
-24.6768
-13.1143
-48.7053
-2.81232
-14.204
-10.9601
-10.3438
-2.9286
-12.0547
11.5165
-10.0676
5.33244
-9.99742
14.8569
-0.15569
-14.3843
-14.0008
-13.7102
-15.4084
-40.6295
-14.6685
17.5773
-11.388
-14.7233
14.3243
10.4793
10.4468
-12.944
20.6568
10.7742
12.8284
2.52868
-13.9894
2.94604
-15.9999
-14.2415
-13.045
17.3864
1.22807
-12.9735
-37.6979
2.965
1.28244
-29.0625
-23.651
16.941
-28.5597
14.7278
5.52773
16.1972
-43.222
-36.8519
-16.6603
-23.3929
11.5911
21.3311
14.4549
-11.1775
-20.9409
8.68265
-2.11581
8.38475
8.80104
-1.71157
-5.58333
-19.4681
-16.4753
-20.4457
-0.636521
-0.875219
-0.690812
-26.8723
13.4181
13.4574
14.8754
-10.2422
-21.8728
-11.2947
1.02482
15.306
-10.9864
4.00945
11.5598
-19.0958
-13.2322
15.401
11.59
-0.979836
-12.8907
-12.9436
3.71179
7.23917
-13.5755
7.27877
-60.437
-18.9045
21.7154
-0.311242
15.3299
16.8323
-36.0303
-37.8264
-18.2213
8.19144
8.15141
-13.3058
-18.8462
-8.66703
4.34116
4.60524
11.8268
-13.7682
-15.739
-12.0293
-27.1533
12.1728
-9.59439
-23.1498
6.85955
7.79616
8.3394
0.279154
8.44062
-0.362437
4.87289
-24.6428
11.7733
-13.2511
12.6814
-33.9113
-20.4517
9.47201
-0.931054
10.3713
-30.8657
11.9093
11.9427
-42.2921
9.19716
12.2979
12.7267
-32.5888
-2.48685
10.9418
12.8052
12.4101
13.9897
-37.6921
12.5021
-28.5615
3.1317
-30.8008
3.93336
-32.407
-12.941
-17.0096
-16.9167
17.4362
-19.7964
-10.0913
-44.5088
-10.2949
-0.998146
-26.2786
-14.5949
-38.3751
12.0493
-38.7344
9.33923
-40.9496
-16.1397
-18.5429
8.59804
-16.6517
9.23434
-17.9339
-34.1248
-35.0178
-17.5847
-23.1879
-23.1026
-16.2052
-23.4186
-23.0986
-14.0474
-25.0924
-21.4441
-26.2165
-4.80966
4.71548
-20.3697
15.2813
-50.457
-16.511
-16.8688
-2.08506
-16.7253
-49.492
-17.296
-26.6066
-1.86762
-16.1934
-12.877
-21.4099
-13.2159
-9.3215
-11.4038
-42.5127
-25.1624
-25.3275
-17.4378
5.95113
-24.6753
-13.4092
-24.7731
-14.6223
-15.3054
-1.27716
-0.984098
-1.19757
-53.1745
-50.7274
-13.2989
-13.7289
9.47737
-11.3719
-10.8426
-13.106
-13.759
-15.147
-18.4771
-18.6352
-10.9805
-10.6354
-0.638979
-21.1435
-15.668
-11.415
-12.2007
-9.98865
15.327
-20.6039
-65.1501
-17.1506
-17.686
-20.6882
2.69607
-9.13126
-77.665
-12.5326
-13.0422
11.8886
12.2415
11.6795
-11.0099
-16.4835
-59.56
-32.7737
-12.9114
1.8845
-1.52771
-61.0302
-8.00053
-43.3914
8.14595
-23.6276
-24.9189
2.92952
-24.7075
-25.6991
9.88113
-9.95878
2.98248
-32.7351
-14.8245
-14.4362
-28.4904
-11.6818
-14.273
-13.2249
-17.7015
-46.1381
-0.588418
-4.8321
-7.79594
-25.6283
-11.9662
-21.8875
-39.998
-38.9126
-0.298148
-0.264804
-41.5409
-19.7481
-3.95291
-35.7804
-5.81562
8.31544
-16.194
-16.2577
-40.9359
-12.4957
-16.8038
-53.5517
-13.9314
-28.6898
-28.6349
-17.3468
5.50555
5.57408
20.4505
-17.5152
21.0388
21.2266
-9.93493
-9.98217
-16.6686
-26.2891
-11.3927
-11.2437
-7.45837
-7.2987
-11.5064
-6.47499
-14.1696
-19.8805
-26.8857
13.8102
13.97
-12.3275
-16.9658
-16.9714
-12.5162
-13.005
-15.3837
-12.5852
-22.9196
-19.5316
-19.251
0.470603
-18.8347
0.728337
-24.2773
-19.5448
4.82837
-18.0851
-20.1095
-11.4247
-26.5908
-24.538
-14.5038
-10.8181
-35.8285
-34.2131
-14.2468
4.97686
-13.979
-16.8722
-14.5152
-14.3458
9.30944
9.59859
-4.94926
-10.5203
5.42789
-9.90686
-10.3042
-16.9049
5.21462
-10.6393
-9.76044
-10.9182
-10.5595
-59.2456
-16.465
-24.2833
-10.1191
-11.0608
-11.676
-27.0672
5.63727
-20.4802
-24.0965
-13.756
-39.8997
-17.1288
-17.2594
-11.8861
-23.5232
-22.1761
-21.5909
-29.9629
-13.6056
13.0568
-20.08
-14.9484
-19.454
-15.507
-12.8573
-30.6361
-19.7579
-46.4236
-18.6823
-11.6662
-16.1557
-35.534
-37.9698
-52.3485
-87.3526
-11.2766
-84.977
-9.95435
-11.6029
-13.7751
-25.9252
-15.315
-9.97087
-17.9163
9.90506
-37.1061
-40.1897
-21.1222
-20.5494
-25.5933
-6.72541
-11.0983
-6.92152
-19.6794
-6.1283
-20.9311
-44.3011
-10.8787
2.15225
-9.91232
1.84531
8.83707
-33.2376
-13.4583
-10.2736
-10.9264
-14.013
-35.663
-17.1954
-25.0508
-13.4158
-13.6333
-14.6578
-12.9934
-12.7876
-23.8801
-30.7592
-22.0861
-15.2002
-17.2309
-14.7688
-15.1239
-15.1631
-13.1988
-6.82353
1.085
-22.833
-12.255
1.45388
-11.18
5.37034
-14.6949
-11.2777
-53.4637
)
;

boundaryField
{
    frontAndBack
    {
        type            empty;
    }
    outlet
    {
        type            freestreamPressure;
        freestreamValue uniform 0;
        value           nonuniform List<scalar> 7(-5.16261e-06 -2.50346e-06 -0.000105361 -8.99931e-05 -0.000524149 -0.000513098 -4.85586e-09);
    }
    walls
    {
        type            zeroGradient;
    }
    inlet
    {
        type            freestreamPressure;
        freestreamValue uniform 0;
        value           nonuniform List<scalar> 7(-1.04298 -1.14487 -0.505296 -0.937604 -2.0933 8.53008 9.82681);
    }
    airfoil
    {
        type            zeroGradient;
    }
}


// ************************************************************************* //
