/*--------------------------------*- C++ -*----------------------------------*\
| =========                 |                                                 |
| \\      /  F ield         | OpenFOAM: The Open Source CFD Toolbox           |
|  \\    /   O peration     | Version:  2206                                  |
|   \\  /    A nd           | Website:  www.openfoam.com                      |
|    \\/     M anipulation  |                                                 |
\*---------------------------------------------------------------------------*/
FoamFile
{
    version     2.0;
    format      ascii;
    arch        "LSB;label=32;scalar=64";
    class       surfaceScalarField;
    location    "239";
    object      phi;
}
// * * * * * * * * * * * * * * * * * * * * * * * * * * * * * * * * * * * * * //

dimensions      [0 3 -1 0 0 0 0];

oriented        oriented;

internalField   nonuniform List<scalar> 
3327
(
-0.0861466
2.08595
-1.9998
1.80769
-1.89384
-0.00858776
0.00117899
0.00740876
-0.00199463
-0.00659313
-0.0214416
0.00447757
0.016964
-0.0167728
-0.00466879
-0.334917
0.438856
-0.103938
0.110693
-0.445611
0.00477574
-0.00477574
0.0176761
-0.00369379
-0.0139822
0.0176761
0.100325
-0.107158
0.00683247
-0.00275472
0.0181911
-0.0154364
0.0699131
0.0433553
-0.113268
0.0396503
0.060675
0.0594386
-0.251856
0.192417
0.218436
-0.158997
0.00117
0.0230018
-0.0241718
-1.52569
-0.513601
2.03929
-0.00854384
0.0080166
0.000527241
-0.0134791
0.0179731
-0.00449398
0.00598188
-0.019461
0.367005
-2.40725
2.04025
-1.85875
2.22576
0.208492
-2.19313
1.98463
-2.16479
2.37328
0.384816
-0.664984
0.280168
-0.0422151
0.0186297
0.0235855
0.367144
0.017672
-0.00458481
0.000267293
0.00431752
-0.00458481
0.213561
0.177243
-0.390805
-0.122334
0.335895
1.33348
-2.07837
0.744889
-0.707657
2.04114
0.207151
0.289695
-0.496846
-0.335582
0.542733
-0.785362
-0.191796
0.977158
0.560765
-1.34613
-1.73267
1.92172
-0.189046
-1.73267
-0.0442436
0.114157
0.0118691
-0.0114778
-0.000391297
-0.00138597
0.0132551
-0.000985118
0.0379532
-0.0369681
0.0256938
-0.0266789
-0.0261984
0.0108844
0.015314
0.0141807
0.00578243
-0.0199631
-0.00464209
0.0188228
0.925756
-0.849406
-0.0763502
-0.00863923
-0.00996316
0.0186024
1.44803
-0.522277
-0.013957
0.0139569
0.0260521
-0.00529691
-0.0207552
0.107825
0.0368941
-0.144719
-0.0171134
0.0128722
0.00424124
0.0194705
-0.0183005
0.00589032
0.0412813
-0.0471716
-0.00275467
0.139842
-0.0320167
-0.0192667
0.0251571
-0.109324
0.114934
-0.00560976
-0.00527801
-0.0118354
0.0111831
-0.0485866
0.0374035
0.00361397
-0.00361397
-0.124357
2.39115
-2.26679
-2.4093
2.28495
0.0580053
-0.0468222
0.00244924
-0.0192221
0.0123417
-0.000698458
-0.0116432
0.0304557
-0.00902998
-0.0214257
-0.00770397
0.0196913
-0.0119873
-0.0631683
-0.0704698
0.133638
1.80769
0.0156853
-0.23844
0.222755
-0.0183252
0.0106212
-2.09879
0.355838
1.74296
-2.85577
0.756976
-0.195378
-0.669311
0.86469
0.976109
-1.17149
-0.410966
0.746802
-0.335836
0.051857
-0.462823
0.0188224
0.00722975
0.0216953
-0.00200401
0.00450236
-0.00450236
0.0153862
0.00630909
0.00531762
0.00818953
-0.0135071
0.0127221
0.0204878
-0.0332099
0.00510078
-0.0142254
0.0091246
-0.0127005
0.0178013
-0.0754614
0.0312177
-0.0170654
0.0139822
0.0030832
0.0315445
-0.751263
-0.370004
1.12127
-0.683928
-0.067335
-0.0849805
0.618026
-0.533046
0.120782
-0.18395
-0.00378532
-0.00723099
0.0110163
1.24454
-1.32952
-0.00791585
0.00413053
-0.178198
0.00468161
0.173516
-0.0574159
0.596174
1.38291
-1.97908
0.0180249
-0.0108039
-0.00722092
-0.00373691
-0.00112792
0.00486484
-0.0170653
2.046
-1.44982
-0.221413
-1.14186
1.36327
0.0104938
-0.0104236
-7.01448e-05
0.0104938
0.891867
-1.11328
-0.225737
-0.0808052
0.306542
0.141407
-0.14999
-0.0809132
0.230903
0.145017
0.0927317
-0.237748
-0.0170653
-0.0391935
0.0573844
-0.111946
1.57244
-1.46049
0.00949565
-0.00392508
-0.00557057
0.234797
-0.0897806
-0.0981779
-0.0518117
0.0152334
-0.00276948
-0.0124639
0.252952
0.382362
-0.635313
-0.20521
0.458162
-0.00373691
-0.0398366
0.000643093
-0.071908
-0.00355335
0.0114755
0.00375786
-0.0001858
0.0207682
-0.0205824
-0.00365792
0.0200229
-0.016365
-0.00242954
0.0302194
-0.0277898
0.0104236
-0.00878915
-0.00163449
0.158626
-0.263823
0.105197
0.032428
-0.0348575
0.0148006
-0.00598858
-0.00881203
-1.08014
0.710138
-0.254869
-0.825274
0.0110175
-0.0112033
0.0138191
0.0182463
-0.0320659
0.017478
-0.0367448
-0.102944
0.0370366
0.065907
0.0876576
-0.0738384
0.0307413
-0.0338393
0.00309809
0.0103691
0.0309122
0.00484303
-0.00366404
-0.0327371
0.0447037
-0.0119666
-1.79003
-1.06574
0.785881
0.200205
-0.149069
-0.051136
0.121404
1.12314
-0.0532317
0.0636008
0.178632
-0.13132
-0.0473115
0.23866
-0.0600288
-0.0135215
0.00657488
0.00694662
0.00119414
0.015756
-0.0169501
-0.000524475
0.00752098
-0.0069965
-0.0106646
0.0131433
-0.00247875
-0.0254786
-0.00204403
0.0275227
0.00280136
-0.00887536
0.00607401
-0.0195021
-0.00911203
0.0286141
2.08253
-0.227751
-1.85477
-0.033975
0.014473
0.0118539
0.013871
-0.0257249
-0.312739
0.384665
-0.0719257
0.026122
-0.000428198
-0.279242
-0.0334978
0.0106615
-0.00786013
0.158993
0.42656
-0.585553
0.0627031
-0.00684575
-0.0558574
0.00468195
-0.000323905
-0.00435805
0.00468195
-0.00766815
0.00184981
0.00581838
-0.00939984
0.0339843
0.391558
-0.425543
-0.013957
0.0292047
0.00874844
-0.0130104
-0.0017004
-0.00684344
-0.00549483
-0.00801423
0.013509
0.044535
-0.0284124
-0.0161226
0.0169178
-0.0174668
0.000548931
-0.0133829
0.00939313
0.00398986
0.00723711
-0.00148746
-0.00574964
-0.00498248
-0.0141431
0.0191255
0.00877074
-0.0137532
0.00723711
0.0169178
0.015892
-0.00601688
-0.00987516
-0.0133829
-0.0133335
-0.00210287
0.0154364
-0.915894
0.171035
0.744858
0.122439
0.0959968
0.21589
0.0043265
-0.0177038
0.0133773
-0.0163256
0.0206521
-0.0251972
-0.0131578
0.038355
-0.0446986
0.0195014
-0.030213
0.0249161
-0.0232035
-0.00700952
-0.0106075
0.022446
-0.0118385
-0.0318795
0.021272
0.00237042
-0.00786525
-0.0116562
-0.0115473
-0.0133335
-0.0348878
0.0326478
0.00224008
0.0278553
-0.0315491
-0.0256688
-0.0092189
-0.00719079
-0.0375078
0.0177616
0.0148653
-0.032627
-0.840429
0.667938
0.172491
-0.907102
0.0666732
-0.00766813
0.00278024
0.0187126
-0.0214928
0.00274543
0.0143063
-0.0170518
-0.0349843
0.00950561
-0.00648943
0.0104458
-0.00395637
-0.004243
-0.00332857
-0.0270899
0.0304185
0.00581838
-0.00581838
-0.00766813
-0.0759346
0.0196544
0.0562802
0.00275467
-0.00880333
0.00604863
-0.0105799
0.0133253
-0.0186762
0.00494501
0.0137312
0.00086999
-0.00431752
0.00344753
0.00112538
-0.01179
-0.00792737
-0.000162172
0.00808954
-0.000542318
0.00795108
0.0979199
0.257395
-0.355315
0.0033557
-0.0112831
0.00878915
-0.00878915
0.000216141
0.0065258
-0.00674194
0.0144496
-0.0261058
0.034985
-0.0205354
0.0258353
-0.0515041
0.0055246
-0.0032725
-0.0022521
-0.131677
0.00922557
0.122451
0.291614
-0.193694
0.139095
-0.0325945
-0.106501
-0.0194449
0.0152018
0.0055246
0.132617
-0.025073
-0.090311
-0.0413655
-0.00863632
0.00847415
-0.0129323
0.00429601
-0.0289731
-0.0555068
0.0844799
-0.0961317
-0.104106
0.200238
1.73228
0.333045
-2.06532
-0.00090542
-0.00415369
0.00505911
0.00420664
0.000509913
-0.00471654
0.18245
0.00420664
-0.011463
0.0434671
-0.0320041
-0.00880333
-0.0775831
0.00164847
-0.131355
0.0410442
0.0116249
-0.0151709
0.00354599
0.0169425
-0.0597197
-0.0178634
-0.0144108
0.00371501
0.0106958
0.00605625
-0.00368582
0.00744558
-0.00744555
-0.0181406
0.0312737
-0.0131331
0.0488633
0.133587
-0.704755
-0.247837
0.952592
0.00233002
-0.0115406
0.00921061
-1.08857
0.383814
-0.0973829
0.0376632
0.0445253
-0.0428768
0.00791785
-0.0611496
0.0185325
-0.0173384
-0.0353087
0.028118
-0.031724
0.0282815
0.00344253
-0.00470438
0.0070344
0.0310591
-0.0205956
-0.0104635
-0.0185702
-0.0276351
0.0462053
-0.0138908
0.0125944
0.0012964
0.0321765
-0.0507467
0.0080823
-0.0163338
0.0082515
0.00605625
-0.0154523
-0.00962075
0.0380501
-0.133601
0.095551
0.0349069
0.0230984
-0.0137711
0.00304386
0.0107273
-0.0158029
0.00203174
0.0199636
-0.0193239
-0.000639674
0.00582052
0.154266
0.0438033
-0.198069
0.0414326
-0.00652563
-0.00683385
0.00532271
0.00151115
-0.0039758
-0.000609006
0.0114483
-0.000954536
0.0114483
-0.00294021
-0.0085376
-0.0273131
-0.0756308
0.00927427
-0.0122145
0.00122488
-0.00805873
-0.0159139
0.00747953
0.00843441
-0.00251055
-0.0134034
-0.348082
-0.335847
-0.60295
0.421603
-0.488938
-0.666966
-0.0378083
0.0024996
0.0450309
-0.000495856
-0.0210807
0.0381542
-0.0170736
0.0539984
0.180799
-1.30997
0.168111
0.288016
-0.234017
0.0940836
-0.0560335
0.043096
-0.0784181
0.0353221
0.018638
-0.0113527
-0.00728529
-0.00795094
0.0175666
-0.00961568
-0.029675
0.0527734
0.0547404
-1.36471
-0.0318101
8.60963e-05
-0.00459411
0.0162113
-0.0116172
0.00731522
0.023499
-0.0308142
2.03901
-1.8709
0.0216216
-0.00490396
0.0144883
-0.00958434
0.00873522
-0.0136392
0.00792269
-0.0156121
0.00768944
-0.00878008
0.0167028
0.0498349
-0.0795099
-0.00441949
0.00441949
-0.0366263
-0.0138694
0.0504957
0.010687
0.0158227
0.00959348
-0.0254162
-0.0123339
-0.0111328
0.0234667
-0.766884
1.08625
-0.319361
-1.55662
0.789736
-0.019832
0.00749805
-0.00624051
0.0191127
-0.112419
0.0595707
0.0528483
0.0300531
-0.00655409
0.296339
-0.262355
-0.131502
0.0333242
-0.00487241
-0.00215803
0.00703043
-0.00487241
0.0805777
-0.0374817
0.00897243
-0.00343952
0.00365567
-0.0148743
0.0249953
-0.010121
-0.00343952
0.0122862
5.55062e-05
-0.0119973
0.0143507
-0.00235344
-0.0131632
0.0135138
-0.000350564
-0.00496508
0.033083
0.454964
-0.940005
-0.676022
1.61603
-0.0121957
0.0158741
-0.00367839
0.0418466
-0.0179243
0.00171285
0.0162115
-0.00441541
-0.0135089
-0.0181263
0.0198392
-0.0189695
0.000843141
-0.000968807
-0.0112269
0.0153309
-0.001317
-0.0140138
0.0021676
0.536418
-0.576095
0.0396778
0.0097418
-0.0343074
0.00737255
0.0269348
0.0111944
0.00109174
0.0165213
-0.0169169
0.000395634
0.0136565
-0.0146253
0.0136565
-0.0131116
0.0321178
-0.0190062
0.581751
-0.0453334
0.00780307
0.0224451
-0.0302482
0.297868
-0.649961
0.352094
0.623774
-0.0420234
0.0115324
-0.0134357
0.00190333
0.00406324
0.0124581
0.00300189
-0.0199188
0.0133829
0.000573978
0.0365833
0.202077
1.94856
-1.3415
-0.607061
0.0931623
1.60426
-1.69742
1.32618
-1.23302
-0.00516863
0.0237983
1.176
-1.18589
0.00989439
0.0142229
-0.0393688
0.0251459
0.0572975
-0.0430746
0.011857
0.00987485
-0.0217319
0.0208525
-0.00899552
0.00198407
0.0157776
-0.0376663
-0.0756021
-0.0144858
0.0222889
0.0232008
0.00891701
-0.0329164
0.0325
0.000416422
0.0180321
0.0345608
-0.0121157
-0.0270205
0.0300224
-0.0113818
0.0104273
-0.0110539
0.011054
-0.00147989
-0.0144959
0.0159758
-0.0232284
0.0217485
-0.0242398
0.00974385
0.0142313
-0.0142313
-0.0175745
-0.00666525
-0.0864259
0.00800784
-0.00188388
0.0120144
-0.0101306
0.00841447
-0.0102983
-0.0109861
0.00899144
0.0196865
-0.0167031
0.00675697
0.00994612
-0.100875
-0.0327264
-0.00464263
0.0201751
-0.0155325
0.0109137
-0.0155564
1.03085
0.0129837
0.00843695
-0.0214207
0.0260781
-0.0130943
0.000308928
0.00688878
-0.0071977
-0.0159358
-0.0069694
0.0229052
0.00484821
-0.0151072
0.010259
0.0763989
-0.210363
0.133964
0.556835
0.00317732
-2.38701
-0.0202406
0.845204
1.19504
-0.292698
-1.8259
2.1186
0.00813066
-0.0240664
0.0147912
-0.0317996
0.0170083
-1.83946
1.54676
0.110194
-0.0122206
-0.097973
-0.129848
-0.0170883
0.444776
-0.267533
1.47397
-1.5311
0.0571253
0.533966
0.218044
-1.74914
0.00543016
-0.0193209
0.0276061
0.00393841
-0.184891
0.235665
-0.0507748
-2.57262
1.86497
0.406303
1.63483
-0.0132461
0.273509
-0.00553918
-0.267969
0.0059954
-0.026591
-0.000990941
0.00626746
-0.00527652
0.00342351
-0.00311458
-0.0462977
-0.0401281
0.00266473
-0.00365567
0.0204666
-0.0144712
-0.199708
0.153203
0.0465054
0.0239517
-0.0219677
0.0396455
1.26239
-1.30204
0.00999205
0.0139597
-0.00269681
0.0184528
0.0117919
-0.0120967
0.00030483
-0.467695
-1.37176
1.44738
-1.91507
2.1979
-0.750525
-0.00771174
0.00619504
-0.000663481
-0.00553156
-0.413321
-0.453702
0.867023
-0.0149452
-0.0116458
-0.00879226
0.0185361
0.00496496
-0.00778827
0.00282331
1.46742
-1.69196
0.224532
1.17878
0.26925
0.800592
-1.21391
-0.0102013
1.95876
0.00619504
0.00200915
-0.0210153
-1.48896
1.47876
-0.345618
-0.0302882
0.375907
-0.476969
0.766663
-0.0301972
-0.315421
-0.306892
0.276604
-0.270309
0.0115351
-0.0115351
0.00583495
2.78307
-2.28495
-0.498121
-1.91901
1.91901
0.86406
0.894449
0.27332
-1.61482
-0.0243518
-0.0374233
0.0617751
0.186334
-0.0186743
0.0140322
-0.890253
0.244398
0.645855
-0.117732
-0.77252
-0.983529
1.22793
-1.09548
1.44931
-0.0163198
0.013165
0.00315478
-0.852318
-1.53469
0.00725282
0.0956623
-0.0135231
0.0218283
-0.0083052
-0.00889513
0.0598512
-0.050956
-1.08767
0.864291
0.223375
-0.110508
0.0199909
-0.0169471
0.0456408
-0.054536
0.0423516
-0.011896
-0.0304556
0.733102
1.5503
-2.2834
1.70875
0.489153
2.44185
0.307224
-0.230826
-0.0892097
0.377226
1.60432
-0.360253
-1.24407
1.28496
0.146854
1.13811
-1.12312
0.273713
-1.00125
0.924904
0.00961455
0.0621441
-0.0618789
-0.000265152
0.0153219
0.0224349
-0.0888192
0.0663843
-0.039444
0.714403
-1.39042
-1.02528
1.73968
-0.0647624
-0.600221
-0.360065
0.270856
2.03591
-0.179345
-0.18072
0.056648
0.816243
-0.872891
0.944503
-0.887855
2.0309
0.00484303
-0.171725
-0.0279834
-0.177377
0.00565181
1.01555
-0.0710486
-0.0755939
1.09115
-1.09671
1.02111
-0.910735
-0.418786
-0.280462
0.0245566
0.0132302
-0.0377868
0.0341711
0.0776856
0.027634
-0.10532
0.019724
0.0326453
-0.0523693
0.11458
0.0341659
-0.00588444
-0.135237
0.0238526
0.111385
-2.26672
1.02265
-1.21604
-0.814746
2.03078
0.110143
-2.04868
1.05563
-1.85362
0.797993
-0.611798
1.66743
-1.48147
0.869673
1.2548
0.317639
-0.226673
1.53598
0.19707
-1.73305
-2.0062
-0.0424821
0.0894651
-0.0802395
-0.0128125
-0.00198858
0.0148011
-0.0116713
-0.0011412
-0.0133751
0.0127703
0.000604832
-0.00021659
-0.0114547
-0.00926729
0.0090507
-0.0158857
-1.84883
-0.288791
2.13762
-2.66129
0.995484
1.66581
0.734029
-2.58286
-1.92726
-1.12104
1.9851
-0.0597464
0.33635
0.0221536
-0.00344107
0.31841
1.31498
-1.63339
-0.0135243
0.0159736
-0.247743
0.0373801
0.570431
1.97474
-2.54517
-0.00689616
-1.92172
1.9665
-0.0447756
1.38293
-1.98999
0.00270879
0.0255014
-1.9665
2.52333
-0.0961801
-2.08025
2.04613
0.0341273
-2.08025
0.00271834
1.87101
-1.45647
-0.414541
1.87101
0.0167543
-0.014036
-0.00209649
0.789514
-1.66696
2.45648
-1.66696
-1.7551
1.46631
-1.7551
0.427911
-0.458108
0.454788
-0.0268776
0.00360695
-0.0205141
0.0169071
2.15735
-1.58692
2.76584
0.009597
0.00145696
2.16002
-0.609723
1.11459
1.04543
-0.0420572
0.00144064
0.00439432
0.0151716
-0.0115646
0.00488816
-0.00344753
0.00959701
-0.017055
0.0143582
2.2415
-2.26174
0.163129
0.780935
1.78914
0.460846
1.07143
-1.53227
-1.55479
-0.230248
-0.0174956
1.95568
-0.884256
-0.125522
2.21147
-0.477264
-0.0373594
0.023106
0.0142534
0.13699
-2.30178
-1.82769
1.96468
1.59009
0.0626896
-0.0824347
0.0197451
-0.0176354
-0.271279
0.0735636
0.197715
-2.046
-0.034257
0.362453
-0.170202
-0.192251
-0.0213027
0.00721258
0.0140901
0.699656
-2.55841
1.72069
0.505067
0.0804119
-0.0177223
0.00669709
0.0274688
-0.00905931
-0.00613716
0.0151965
1.89384
-2.27908
0.385239
0.0435939
-0.0167263
-0.000740419
0.00537517
-0.0165834
0.0112082
0.100099
0.594701
-0.621579
-0.123169
-0.148109
0.021975
2.33058
-0.63484
-0.214955
0.849795
0.0494914
-0.00426357
-0.0452279
2.44261
2.21196
0.230656
-0.0269152
-0.625562
-0.00927777
1.55156
0.0385331
0.00337466
-0.0715646
0.0681899
0.0202666
-0.000796104
1.10928
-0.548513
1.95786
0.0208272
-0.0241557
0.0189801
-0.0366155
0.998619
-0.104171
0.00377676
0.00845705
-0.0122338
0.048848
-0.0190899
-0.0297581
-0.884267
-1.61219
2.41018
-1.61219
-1.15198
0.698277
-0.104642
0.594755
-0.404462
-0.190293
0.0036917
0.00696978
0.258908
-0.23003
-0.00924062
0.516772
0.0187904
-0.0320087
0.0132183
0.00105647
-0.0047423
0.00368582
0.0142904
-0.0105136
0.0169795
0.0710167
-0.0879961
0.0156815
-0.0156815
0.0213103
-0.00562879
0.0146253
0.00668495
0.0132888
-0.0132888
-0.00723711
-0.00982822
0.764329
1.67752
1.11922
1.0184
-1.41512
-1.41512
-1.47986
-1.06531
0.0232392
-0.00224155
-0.0209976
-0.0111714
0.0299618
-1.21774
-0.369619
1.58736
-2.04613
1.4364
0.0120678
-0.0159275
-0.0046046
0.105278
-0.100673
-0.0222457
-0.00856854
-0.0142269
-0.00165873
0.0201989
0.0279822
-0.0481811
-0.0124343
0.0196434
-0.00720918
0.00285701
-0.0152913
0.0397359
-0.016349
0.0148382
0.00151078
0.0159942
-0.0131372
-1.04136
-0.691694
-0.0122605
0.00424626
0.0175394
0.00622011
0.0134233
-0.00124302
0.0244412
-0.0207024
-0.00373873
-1.91595
1.3333
0.582647
0.00331244
-0.177305
-1.73864
-1.66378
2.44472
-0.061426
0.0361202
0.0253058
0.00769147
-0.0147394
0.00704793
0.0113736
-0.00368211
-0.0184862
-0.0114722
0.0299584
0.00870629
-0.0271925
0.910961
0.0251396
0.344461
1.61122
-1.48144
-0.0665244
0.0875904
-0.021066
-0.0412271
0.0168491
0.0152735
-0.0321226
-0.00667321
0.00219548
-0.0937067
-0.856961
0.950668
0.0737387
-1.00661
0.912903
0.122896
-0.0604775
-0.0624182
-0.0135854
0.0135854
-0.00398843
-0.0102606
-0.000464922
0.0107255
-0.463686
-0.750227
-1.6967
0.00420703
-0.00420703
-1.04193
-0.654773
0.0955826
-0.0665852
0.0061076
0.0263424
-0.0131121
0.0218882
0.0044542
0.0102051
-0.0108685
0.0448313
-0.100206
0.205758
1.92645
-0.0169324
0.0236295
-0.0103654
0.0165855
0.0139507
0.000297237
0.00877201
-0.00906925
-2.65375
1.80143
-1.86787
-0.00635718
-0.0310662
0.0361007
0.703306
0.0123867
0.0131571
-0.0255437
-0.016404
-0.00955721
0.0259612
0.0222213
-0.0262297
0.00400844
0.0265534
-0.0329106
0.00232091
-0.0121758
0.00985491
-0.00408946
-0.000915375
0.00500484
-1.95997
0.918042
-0.0023659
-0.0241876
0.0454543
-0.0212667
-0.0403808
0.0161932
-0.0208794
0.0342748
0.334354
-0.192947
-1.76708
1.64156
-1.88524
0.118157
1.57053
-1.2399
-0.330625
1.05693
0.0237262
0.0740899
-0.0978161
-0.00408946
-1.66695
1.00526
0.661688
-0.488166
-0.019717
0.0220379
0.00849854
-0.0249026
0.324938
1.34249
-0.00119878
-0.00489397
0.00609273
0.0274095
-0.00543442
0.00489397
-0.00459673
-1.30641
1.63135
-0.00574963
0.00574964
-1.79458
0.0380812
0.0768526
0.0633067
-0.0252254
-0.0177078
0.0514106
-0.0353297
-0.00843016
0.00711317
0.242303
-0.123978
-0.118324
0.0142298
0.106927
0.348037
0.00268429
-0.038014
0.00843016
-0.000332585
-0.00809756
-0.0207263
0.300093
-1.18795
-0.431236
0.538163
-0.0135243
0.152522
-0.00679116
-0.0124309
-0.0183215
0.000927815
0.0173937
0.0219108
-0.00443278
0.0136021
-0.0167225
0.00312041
0.0107505
-0.014484
0.00373344
0.0105677
0.000182775
0.0104994
0.00430116
-0.00398452
0.0491395
-0.0643193
0.0151799
0.0419395
0.00942251
0.0231746
-0.0325971
0.333849
0.0112738
-0.013277
0.00200315
-0.0017324
-2.4093
-0.873431
1.17091
-0.29748
-0.288174
-0.361788
-0.821219
-0.180748
0.460916
-0.0193526
0.0183162
0.00103644
-2.30928
0.0104771
0.277112
-0.457861
-1.82769
0.00489397
-0.00706564
0.0407016
-0.033636
-0.0782024
0.00378088
0.0416734
-0.0814952
0.00737419
-0.0340531
0.160172
-0.339518
-0.0248734
0.0226045
0.00226896
-0.00955076
-0.0415771
0.0558305
0.0588724
0.028718
0.50821
-0.0622931
-0.0075358
-0.0406453
0.00358351
0.015542
-0.0146738
0.0182574
-0.0551493
0.0791972
-0.0240479
-0.00893181
0.16858
-0.362274
-0.0640811
0.327572
-1.67963
0.558586
-1.77933
-0.824307
0.89938
-0.0750731
0.421455
0.191036
-0.612491
-2.27908
0.0130014
-0.0115037
-0.00149774
1.96468
-0.440476
-0.408065
-2.81756
2.4095
0.209575
2.15735
0.0178275
-0.0377401
0.0199125
0.0332759
-0.0154483
-0.0836889
0.00125415
-0.00132286
0.0143732
-0.0130503
0.118934
0.307626
0.0168939
-0.0183813
-0.248938
0.367872
0.262215
-0.27378
0.0115656
0.0372134
0.0382917
-0.0755051
-0.05789
-1.45647
1.1804
1.58692
1.4364
1.46631
0.0100231
0.00549388
-0.0155169
0.0134082
-0.0219768
-0.918224
-0.00364355
-0.0315551
-0.00615862
0.0377137
0.000184818
0.0412477
-0.440424
-0.477801
0.00405144
-0.0164953
0.0124439
-0.00600464
0.0160277
-0.0111195
-0.0197557
0.0197557
-0.0188279
-0.0157166
0.0117321
-0.0102227
-0.0143277
0.144831
-0.0571739
1.33125
-0.0688636
0.267726
-1.15198
-0.0472736
0.0337263
0.0135473
1.38578
-1.11806
0.00184536
-0.0175376
0.0156923
0.0120894
-0.0102441
0.0213392
-0.0104548
-0.0411068
-0.00616681
-0.0121683
0.0164096
0.0200613
-0.0142789
0.00136572
0.0199735
0.00993915
-0.0099391
0.0086318
0.0114295
-0.104853
-0.0080713
-0.0289631
0.0208918
0.236089
0.613706
0.00817036
-0.0192898
0.0186899
0.00255562
-0.0212455
0.0173403
-0.0173403
0.448237
-0.372982
0.00165884
0.00268848
0.0134082
-0.030118
0.0167098
-0.000548931
-0.0131203
0.0768637
-0.0468443
-0.00407216
0.00472201
-0.000649857
-0.0114784
0.00630243
0.00430645
0.0154493
-0.0211255
0.00800525
0.0127264
0.00630242
-0.0214797
0.0685853
-0.0471056
0.517093
-0.470924
-0.046169
-0.0414456
-0.101719
0.657544
0.0174177
-0.00857133
-0.0088464
-0.00581727
-0.0112823
0.0170995
-0.181868
-0.883989
0.733795
0.150194
0.0116005
0.0213274
-0.99877
0.0916685
0.0271718
-0.0648382
0.00769893
-0.0169178
-0.00769893
0.00769898
-0.0154939
0.00421162
0.029168
-0.00506066
-0.0241073
0.0196117
-0.0607185
-0.0176565
-0.00163333
0.00863256
-0.0120544
0.0686783
-0.056624
-0.0130114
-0.0140785
0.0169504
-0.0230365
0.00538
0.00257161
-0.00842896
0.00585734
0.0758918
-0.00405857
-0.012919
0.0169776
-1.13372
-0.856269
-0.0384825
0.00692737
-0.0270951
-0.253117
0.0330822
0.220035
-0.00902843
0.00702442
-0.00977205
0.00506767
-0.00393423
-0.00583782
0.00983344
-0.00960307
-0.00023038
0.0866853
0.905572
-0.0099473
-0.0111782
0.0283843
-0.224733
-0.0867119
0.140265
-0.0535533
0.0484056
0.0141918
0.0184561
-0.860806
0.643103
0.217703
0.014666
-0.0104197
0.0148848
-0.0002188
-0.00947634
-0.85133
-0.00953607
0.00953608
-0.100775
0.60824
-0.507464
0.661432
-0.762208
0.00136328
0.728992
-0.0675594
0.0211055
-0.020472
-0.000633577
0.288568
-0.251186
0.213785
0.0374008
0.133479
-0.0824298
0.00741763
-0.00774153
-0.49224
0.411435
-0.575796
1.91828
1.83439
0.289399
1.83439
0.59459
-0.014733
0.0140346
-0.00827578
-0.00645725
0.00702633
-0.00793548
0.000258927
0.00767656
-0.00244902
0.0160511
-0.379028
-0.014178
0.393206
0.129182
0.0118348
-0.0142838
-0.10831
0.0494915
-0.136203
0.00656777
0.0010292
-0.00759698
-0.0185186
-0.00952768
-0.00994726
0.0194749
0.0460452
-0.124523
-0.00803894
0.013836
-0.00579703
1.29655
0.334797
-0.0216432
-0.00418953
-0.00430076
0.00190536
-0.00984084
-0.163724
-0.00192851
0.051068
0.00683672
0.00350513
-0.0103418
0.0112979
-0.00446116
-0.011969
-0.0063562
0.0437546
1.2528
-0.268577
-0.107671
-0.160906
0.0420743
-0.0574176
0.0153432
0.12323
-0.116458
-0.0210283
0.0192041
0.0624382
0.0111229
-0.0735612
-0.0192783
-0.0117381
0.0136435
0.0129887
-0.00421674
-0.00370386
0.0358804
-0.327952
0.017838
-0.00238871
-0.0154493
-0.481962
-0.343312
0.179929
2.15065
-0.49614
2.33728
2.33728
0.556427
0.464685
-0.76052
1.31695
-0.0720283
0.017838
0.0442036
1.27077
-0.0689937
0.022696
0.00449964
-0.0334242
-0.0355695
0.00581927
-0.0119564
-0.00105473
0.013404
-0.0123493
0.0106774
0.0963761
-0.0957722
-0.000603836
0.0384839
0.0578922
-0.780132
-0.405758
0.556392
1.05964
-0.0789273
0.0205432
-0.00547413
-0.0150691
-0.149706
0.018386
-0.182433
-0.0926058
-0.348703
0.0332821
0.0100842
0.010459
-0.226119
-0.122584
-0.109776
-0.174562
0.284338
-0.0153588
-0.881725
0.0955799
0.786146
0.0204511
-0.0159736
-0.872857
-0.00886809
-0.166242
-0.00972116
0.0085305
0.00119067
0.0103927
0.0100585
0.070711
-0.0582208
-0.332584
-0.00757674
-0.00214442
-0.334375
-0.0904562
0.424831
0.0254275
-0.0181978
-0.00821636
0.0103927
-0.180585
0.0255823
-0.528357
-0.643131
-0.00510225
-0.0122275
0.0173298
-0.146969
0.20075
-0.0537807
0.00241141
-0.0146389
0.0191172
-0.0211612
0.0243349
-0.219496
0.0725268
0.00581927
-0.0183416
0.0252342
-0.00689262
0.408606
0.0015333
0.00737475
-0.00890804
-1.59252
1.06417
0.0130811
-0.0115478
0.113937
-0.450543
0.00278599
0.0102951
0.0491125
-0.0476586
-0.00145386
0.0154335
0.00411423
-0.0195478
0.000648772
0.0147848
0.0170638
-0.00128629
0.0849594
-0.0868879
0.0793497
-0.010963
0.00136294
0.00960001
-0.015497
0.0517145
-0.0649999
-1.08698
-0.0133299
0.0129973
-1.14074
-1.67682
1.30398
-1.59727
-0.00106713
0.00809756
-0.00703043
-0.00475946
0.00512133
-0.000361866
0.0201501
-0.0104653
-0.00286463
0.0150462
-0.021583
0.00653684
-0.0307243
0.00226466
0.0150002
-0.0127355
-0.000591725
-0.0136337
-0.0115547
1.17482
-0.0172916
-0.0186775
-0.122576
-0.317901
0.056275
-0.0142007
0.394517
-1.00751
0.485231
0.00937953
1.23861
0.0495864
-1.2882
0.088352
-1.96874
1.5387
0.00531592
0.0175892
-0.00475946
-0.0202498
0.0114034
-0.0289957
-0.948492
-0.0040905
2.49245
-0.0335538
-0.00432953
0.0378833
0.0653278
0.0532735
-0.00419536
-0.0443912
-0.0411634
0.00106328
0.0124505
-0.0294752
0.00173108
0.0277441
0.00863285
0.0404796
0.322192
0.0396149
-0.0227896
-0.0168253
-0.135916
-1.46765
0.723841
-1.50397
-0.0039758
0.0404123
-0.012557
0.00968805
-0.00928552
0.0189736
0.915209
-0.793805
0.545283
-1.23698
-0.00548802
-0.00755505
0.0130431
0.00751342
0.02947
0.0101449
0.000775628
0.0160768
-0.0153012
1.09539
0.0755165
0.877343
-0.0122358
0.0633038
0.689636
-0.0173845
0.0260173
-0.0446913
-0.000990289
-0.0153295
0.0233379
0.00613203
0.0333028
-0.0263754
-0.0276618
0.957755
0.0138597
0.0138597
0.0284659
-0.0328481
0.0100585
0.0140099
-0.00925301
0.0106163
-0.00248871
0.0143863
-0.0118976
0.00425603
-0.305402
-0.578864
-0.0377537
0.0154892
-0.0111225
0.0595281
-0.0261692
-0.0821406
-0.0333589
0.0139336
-0.00251996
0.0164536
-0.00583689
-0.00801996
0.0138569
-0.0170417
0.0145217
0.00180023
0.0122097
0.00298495
-0.0203694
0.0323446
-0.00184804
0.0158826
1.53278
0.250408
-2.25021
-2.24927
0.0172315
-0.0105466
0.00603895
-0.0163432
0.00928979
0.0070534
0.0473889
0.00939313
-2.9998
-0.930964
-0.0637562
-0.026093
0.00816434
0.021858
2.09136
0.02063
0.00880333
0.00553669
0.0456642
0.0897058
-0.0436607
0.256578
0.91103
-0.866826
-0.019605
0.0222893
-0.0154364
0.00191582
-0.00840525
0.00576217
-0.00384635
0.0100304
0.00150467
0.0100304
0.718933
0.0220244
-0.0147715
0.00498269
0.241132
-0.834087
0.673524
0.160563
-0.0100747
0.0141889
0.0338007
-0.0413365
0.00167804
-0.147503
-0.843564
-0.127225
0.0654166
0.0618081
-0.213197
0.0142275
0.0331614
-0.00953878
-0.00978214
-0.0139542
-0.292153
0.385277
-0.0931231
0.0168319
-0.0125298
0.00116709
-0.29332
-0.0190628
0.00615336
0.0129095
-0.00109721
0.0128891
-0.0103561
-0.00870671
-0.0119564
-0.0114533
-0.0917772
1.15585
-1.06407
-1.16152
1.06974
-0.0536611
0.0879535
-0.235457
0.579042
-0.948661
-1.27857
-0.0234622
0.0093521
1.26868
0.0220828
-0.0127307
-0.00181645
0.0155255
-0.013709
-0.0205962
0.0187798
0.0248108
-0.0236508
-0.00115997
-0.00993915
-0.00630242
0.00934736
0.00248742
-0.0272367
0.317599
0.0163572
0.00845363
-0.0160685
-0.00512064
0.0211891
0.00126024
-0.0173287
0.0262819
-0.01108
0.0541114
-0.0203851
-4.49622e-05
-0.0137083
-0.0159012
0.0083785
0.00752269
0.0308936
-0.0399235
0.00686014
0.0472513
1.84996
1.8345
-1.57792
-0.654495
0.0124633
-0.0114268
0.00609273
0.0499172
0.00839068
-0.0176761
0.0281934
-0.00269208
0.00819028
0.00786085
0.00342352
-0.400037
0.209745
1.89955
0.0305482
0.65866
0.00971582
0.00412015
-0.00361398
0.00913793
-0.0206163
2.36247
-0.151007
1.7077
0.0151451
-0.00371562
0.00743572
-0.00654175
0.0162576
-0.00489819
0.0183022
0.12133
-0.13355
0.00872274
-0.00285247
-0.00587026
-3.6766e-05
0.0087595
-0.00971042
0.00490526
0.00480516
0.00859156
-0.0105801
-0.0226397
0.0138475
-0.00975061
-0.00118379
-0.00655774
0.00418337
0.00292981
-0.00711317
-0.130358
0.0119045
-0.00784123
-0.289046
-0.00516869
0.0185196
-0.00518666
0.0232188
0.00487241
0.00703207
1.96204
-0.00669845
-0.00680878
-0.0643328
-0.697875
0.413811
1.33185
0.581626
-0.570353
0.0165721
-0.0182309
0.234366
-0.501899
-1.65668
-0.0102784
-1.65668
0.586459
-0.00194224
-0.0115821
0.00407216
0.00145245
-0.183912
1.70011
-1.68456
0.30054
-0.00440769
0.00776339
-0.00436821
0.00559309
0.0104698
-0.0071185
0.00620313
-0.0080518
0.0137496
-0.000164207
-0.0115821
-0.356112
-1.27727
-1.38139
-0.0198558
0.0180078
0.00846144
0.0137496
-0.00507825
-0.014629
-0.0032725
-0.217747
0.310479
0.00839069
-0.00418935
-0.0145706
0.0138375
0.000733085
-0.0079957
0.0285533
-0.0476433
-0.00352706
0.0534442
0.00232468
0.0147304
0.00259939
0.0243155
0.0026206
0.00950937
0.00702442
-0.00702442
0.0443371
0.408654
-0.499111
-0.12001
0.0390963
0.0100151
-0.00192556
-0.000945159
0.0822615
-0.200586
-0.155487
-0.0133335
-0.10284
-0.00222219
0.00754489
0.172254
0.0100122
-0.000632616
0.00732234
-0.00542168
0.209635
0.0115008
-0.035789
0.444443
-0.543253
0.0851117
0.00418192
-0.107889
0.039903
0.0679858
0.00788466
0.0103485
-0.0187184
0.00338894
-0.00436821
-0.0188775
0.0207653
-0.00637319
-0.0225899
-0.0138088
-0.00669956
0.00524057
0.00145899
0.00204688
-0.061103
0.019771
-0.00930861
0.0155425
-0.0149376
-0.00142956
0.0109759
0.607586
-0.698091
0.090505
-0.0318892
1.69054
0.268219
-0.00551892
-0.00118064
-0.0154793
0.00823473
0.00724453
-0.0155651
0.0794177
0.0019428
-0.0175079
-0.011866
0.0119665
-0.119855
0.0105149
-0.00871462
0.0133264
-0.0169699
-0.00434526
0.0094921
0.00416439
0.00157643
0.00415369
-0.00573012
0.0094921
0.00524478
-0.0133035
-0.0162043
0.00367455
-0.676134
-0.503643
-1.22199
-0.0843851
-0.0012542
-0.0149501
0.00887797
0.00163688
0.00274653
-0.0023017
-0.0048168
2.3813
-0.00945008
0.00854466
-0.00411698
0.00935755
0.014674
-0.00435805
-0.00124928
0.00496359
-0.00496359
-0.00787365
0.00436821
0.00121407
-0.00558227
-2.07959e-05
0.00856546
0.277493
-0.0754162
-0.0116817
0.0961616
-0.0310679
-0.00591086
-0.177711
0.126936
-0.219076
-0.0195164
0.00180857
-0.0197147
0.000198333
0.0159999
1.03394
0.0033719
-0.0126125
-0.0154723
0.0733027
-0.00480842
0.00558227
-0.000773846
-0.00480842
0.00114063
0.00466878
-0.0058094
-0.00092518
-0.00266473
0.00358991
-0.890976
-0.140261
0.0447362
0.0175291
-0.0622653
-1.74724
-0.690318
0.00534228
-0.0163469
0.0191638
0.0151111
0.00402887
-0.00814585
0.0522445
1.34006
-0.00327886
-0.0257968
0.0241418
0.00165503
0.00750596
-0.0216715
0.0115876
0.0100839
-0.00972046
0.0134856
-0.00376516
0.0140722
0.000220018
-0.0114147
-0.00286906
-0.0111947
0.0239418
-0.00987411
-0.0107221
0.0118744
0.00525373
-0.0167297
0.00379442
0.0216331
0.716406
-0.0186317