/*--------------------------------*- C++ -*----------------------------------*\
| =========                 |                                                 |
| \\      /  F ield         | OpenFOAM: The Open Source CFD Toolbox           |
|  \\    /   O peration     | Version:  2206                                  |
|   \\  /    A nd           | Website:  www.openfoam.com                      |
|    \\/     M anipulation  |                                                 |
\*---------------------------------------------------------------------------*/
FoamFile
{
    version     2.0;
    format      ascii;
    arch        "LSB;label=32;scalar=64";
    class       volVectorField;
    location    "239";
    object      U;
}
// * * * * * * * * * * * * * * * * * * * * * * * * * * * * * * * * * * * * * //

dimensions      [0 1 -1 0 0 0 0];

internalField   nonuniform List<vector> 
2283
(
(10.0389 -0.0189059 1.71496e-18)
(9.75894 -0.00508728 5.49212e-17)
(6.04093 -1.07038 -5.00742e-18)
(6.28697 -1.08635 4.92983e-18)
(7.59026 -1.19191 0)
(7.62237 -1.27371 0)
(9.3421 -0.0622256 0)
(9.29609 -0.0143805 -1.37371e-18)
(3.7073 -0.685402 -1.96188e-18)
(19.1067 6.29831 0)
(16.8731 4.13505 3.08637e-18)
(7.88265 0.595041 -5.8418e-17)
(6.96234 0.629935 -6.33416e-18)
(9.66041 -0.955036 6.45241e-18)
(7.67561 0.446919 -1.14329e-17)
(8.82107 0.866458 0)
(9.00616 0.914373 2.15128e-18)
(7.30175 -0.543924 8.14594e-20)
(9.9259 0.0086176 0)
(7.24934 -1.22962 -5.70817e-18)
(8.60821 -1.35688 2.36402e-18)
(8.33 -1.34201 0)
(9.04405 0.0242774 4.53274e-17)
(8.99356 0.0154889 -1.07895e-16)
(9.34601 -0.0385414 0)
(10.0862 0.00882172 6.27261e-17)
(8.80714 0.298214 0)
(10.9022 -1.00001 0)
(8.74197 0.270768 0)
(5.40718 -0.938202 1.67531e-18)
(3.63256 -0.620031 -5.48521e-18)
(8.49097 0.0392581 0)
(8.43306 -0.0108384 -2.77786e-18)
(8.77289 0.0460259 -2.3896e-17)
(9.09876 0.0110673 0)
(8.66819 -0.189906 -8.35492e-18)
(8.72065 -0.235083 0)
(8.89465 0.110254 1.42898e-17)
(8.92366 0.120559 -1.98257e-17)
(9.7034 -0.0123419 -9.94719e-17)
(6.53278 -0.0611346 1.12056e-16)
(9.53885 -1.04479 -9.13372e-18)
(8.8316 -1.41672 2.08161e-18)
(9.27623 -1.45295 -3.66656e-18)
(11.2037 -0.823888 4.99225e-18)
(11.2552 -0.955346 0)
(7.54079 -1.43708 3.02183e-18)
(5.81977 0.351097 -1.56967e-18)
(5.63102 0.147631 0)
(8.76164 -0.0883928 -6.57539e-19)
(7.60506 -1.19162 3.92317e-18)
(8.80984 -0.0954114 1.5042e-19)
(9.72766 -0.384671 5.83414e-19)
(10.5169 -1.21169 2.77542e-18)
(10.2617 0.0218567 -2.53133e-18)
(9.74598 -1.44535 -5.00381e-18)
(7.25923 -0.597503 0)
(7.29691 -0.227553 0)
(3.8594 -0.619377 0)
(10.1499 -0.0798563 2.70818e-17)
(7.23096 -0.297066 -8.35357e-18)
(11.0944 1.3441 -1.14067e-17)
(9.81497 -1.43059 0)
(11.2008 -0.584373 1.41801e-17)
(3.71412 -0.668293 -1.64798e-18)
(9.82802 0.0778312 -1.00503e-17)
(10.0753 0.065259 1.04306e-16)
(11.1456 -0.464075 0)
(7.46807 -1.25523 -2.13718e-18)
(9.02467 -1.43456 3.01253e-18)
(7.98398 -0.855762 -2.72247e-18)
(8.51486 -1.34472 -2.94948e-19)
(9.63725 1.65939 2.73965e-17)
(6.55805 -0.0113479 3.44359e-17)
(9.30706 -0.671624 -3.14118e-17)
(8.56897 -1.29386 0)
(8.84862 0.0266981 1.34387e-18)
(8.77368 0.107297 1.84744e-18)
(8.99567 0.103804 0)
(9.02507 0.078869 0)
(8.87019 -0.25976 1.21972e-18)
(8.89721 -0.281982 0)
(10.4452 -1.23107 -1.4341e-18)
(8.33076 -1.36714 5.13618e-20)
(3.6537 -0.836985 2.72283e-18)
(8.49646 -1.3761 2.34741e-19)
(11.4959 -1.44985 1.62143e-19)
(10.4505 -1.12705 0)
(10.1255 -1.48582 1.65243e-20)
(10.4257 -1.44417 1.8893e-18)
(9.50716 -1.13253 0)
(15.4337 8.60404 0)
(10.4024 -1.19116 0)
(8.86114 -0.203745 -1.21689e-17)
(8.75674 -0.232786 0)
(8.68561 -0.0159868 1.27273e-17)
(9.65729 1.29312 -2.09951e-17)
(7.4869 -1.30823 2.84161e-18)
(8.85368 -0.0303887 -4.12574e-17)
(6.81832 -1.21068 -4.17014e-18)
(10.3493 1.01975 -2.23115e-17)
(9.9503 1.06144 4.16581e-17)
(10.3596 -0.298223 4.55579e-17)
(10.017 -1.44931 0)
(5.74884 -0.9852 0)
(10.0659 6.97288 0)
(9.41112 -0.0447784 -1.35814e-16)
(9.47365 -0.00505339 2.23015e-18)
(7.10166 -1.13284 0)
(4.82343 -0.777612 0)
(9.16609 0.00691808 -6.72932e-17)
(8.61093 0.248702 1.33145e-17)
(8.68241 0.30272 -1.14058e-17)
(8.65799 -0.675687 -5.414e-18)
(8.86444 -0.51679 -4.88352e-19)
(10.1143 6.65166 3.22878e-19)
(7.15964 0.45013 1.29735e-17)
(9.46 -0.00041972 -2.13036e-17)
(7.86638 -1.38708 0)
(8.60182 -0.432819 7.31402e-20)
(8.55949 -0.579888 -4.2033e-18)
(9.41593 -1.45038 4.35773e-18)
(8.96788 0.271021 5.94302e-19)
(9.00616 0.296538 -4.57707e-18)
(3.66595 -0.694498 -3.80815e-18)
(8.34934 -1.21749 -1.55572e-17)
(9.57847 -1.12944 7.8184e-18)
(9.24753 -1.45681 0)
(7.86246 -1.30399 0)
(10.7023 -1.41135 2.20748e-18)
(8.26057 -1.09035 2.515e-18)
(7.09946 -0.917115 0)
(4.72152 -0.598168 -1.90538e-18)
(9.36164 -0.469182 0)
(8.25813 -1.0262 0)
(7.40239 -0.973266 -1.13925e-18)
(9.04273 -0.159765 -3.10244e-17)
(9.05385 -0.17954 -6.95087e-18)
(7.24902 -1.24407 0)
(4.27909 -1.43054 3.08902e-18)
(7.14905 -0.280745 4.16052e-18)
(7.90366 -0.747627 1.14154e-17)
(7.2843 -0.920309 2.80467e-18)
(8.01743 -0.946367 0)
(7.38136 -0.322403 -3.62015e-18)
(5.30335 -1.10554 0)
(11.6617 -0.00488073 4.80976e-18)
(8.86811 0.137194 3.89877e-17)
(9.01104 -0.028801 0)
(9.11675 -1.04164 1.66217e-17)
(8.99364 -0.0129925 3.15938e-17)
(7.48852 -0.277157 -2.3974e-18)
(8.42058 -0.375347 -3.38708e-17)
(8.49957 -0.462567 0)
(7.60318 -1.26868 -6.37739e-18)
(8.22173 -1.2899 0)
(6.80872 -1.19112 3.79019e-18)
(6.27269 -1.11732 0)
(8.12859 -1.02758 -2.97027e-18)
(7.6228 -1.29402 -3.62455e-18)
(7.12313 -0.0746494 -5.65933e-18)
(10.138 -0.0576292 -1.21668e-16)
(7.01148 0.012603 1.03944e-17)
(11.6439 -1.21967 6.87917e-18)
(9.66946 0.344885 -2.04186e-17)
(11.2089 -1.04483 9.59559e-19)
(9.51119 0.347722 9.11547e-18)
(8.05103 -1.34472 4.86743e-18)
(9.22513 0.427405 -1.10757e-17)
(8.30314 -0.948462 2.56748e-18)
(5.86728 -1.03957 1.43461e-18)
(3.95911 -0.700866 0)
(5.82913 -1.27823 5.56931e-18)
(7.45095 -1.26747 7.3275e-19)
(9.34492 -0.243786 0)
(8.44641 -0.206165 2.50394e-18)
(11.068 -0.845023 4.4781e-18)
(10.9888 -0.976281 -8.69619e-18)
(7.74827 -1.28205 1.71761e-19)
(6.61788 -1.11094 -2.98476e-18)
(9.19569 -1.30334 -9.2177e-18)
(6.75685 4.09545 -1.03622e-17)
(4.24728 2.36021 3.39792e-17)
(9.37176 6.38418 -7.72753e-19)
(6.29813 -0.439085 8.57686e-18)
(6.10722 -0.513309 -4.08557e-18)
(7.55673 5.60957 1.80268e-18)
(5.50588 4.58745 -6.40484e-18)
(7.57513 -1.13751 -1.07071e-18)
(5.97872 1.58932 3.16732e-18)
(9.41094 -0.965069 3.74884e-18)
(8.62302 -0.0565036 0)
(9.1102 1.15417 6.47274e-18)
(9.11148 -0.902824 -2.19167e-17)
(5.92871 0.697158 -1.50306e-18)
(6.25183 0.679341 0)
(7.60419 -0.608184 6.38903e-18)
(7.60403 -0.525113 -1.09536e-17)
(10.5284 -1.297 5.19299e-18)
(10.5616 -1.31532 -2.70847e-18)
(7.70832 -0.832343 -3.45093e-18)
(7.71209 -0.768258 7.19679e-18)
(6.00102 -0.996219 6.14327e-19)
(10.6488 -1.26633 -3.48569e-18)
(6.64836 -1.18669 -4.31487e-19)
(9.15959 5.30693 -6.79437e-18)
(16.183 3.46026 0)
(8.75332 4.86036 -4.46672e-19)
(7.53583 -0.462527 0)
(5.94453 2.41322 -6.86117e-18)
(9.03823 0.219526 0)
(9.0136 0.176945 0)
(4.48063 -0.89918 -9.54681e-19)
(7.93614 -0.998922 0)
(8.66061 -1.36188 0)
(8.10161 -0.995821 1.11725e-18)
(9.16705 -1.43291 -2.51134e-18)
(8.04664 -0.994728 2.55612e-18)
(9.66473 -1.30066 0)
(4.46748 -0.921039 -3.005e-18)
(4.56118 -0.783526 0)
(7.93892 -0.435191 1.11241e-17)
(4.99972 -3.08994 1.54647e-17)
(8.37213 -1.33237 -1.3463e-18)
(7.95275 -1.3721 0)
(5.15161 -0.945341 -1.75849e-18)
(6.72172 -1.1892 -1.61982e-18)
(7.96268 -1.338 4.02832e-18)
(6.41109 -1.1244 2.50472e-18)
(8.9217 0.612242 0)
(7.67487 -1.30842 0)
(5.26926 -1.26256 0)
(5.9532 -1.13305 -1.72211e-18)
(10.6656 -1.20516 -7.58412e-19)
(10.6228 -1.14166 0)
(8.21545 3.90681 2.2238e-19)
(5.2731 -0.929764 5.18664e-18)
(7.89701 -0.00692907 -1.34149e-17)
(3.69519 -2.06321 -3.08803e-17)
(9.04406 0.638996 -3.19338e-18)
(9.77005 -0.719971 -3.67794e-18)
(8.02484 -1.03205 1.93568e-18)
(3.76554 -0.682384 -9.69559e-18)
(9.09952 0.77829 3.12327e-18)
(7.436 -1.31685 5.64591e-18)
(7.97569 0.139621 -1.16089e-18)
(8.31548 -1.37087 -1.19242e-18)
(8.55663 -1.38654 -2.45802e-18)
(8.0929 -0.565279 8.14201e-18)
(8.5461 0.503128 1.15187e-17)
(9.44483 0.00756672 0)
(5.50021 -0.944825 -9.9054e-18)
(5.39448 -0.82984 -7.94805e-18)
(9.6513 -0.80492 0)
(4.32284 -0.470552 8.56425e-18)
(8.51994 -1.37283 6.64796e-18)
(5.52064 -1.74393 -5.93971e-18)
(7.8549 -0.383187 4.48066e-19)
(7.90773 0.256382 2.11653e-17)
(12.141 -1.26021 -1.07805e-18)
(11.9007 -1.33373 0)
(7.8401 -0.279011 -5.64931e-18)
(7.45923 -1.0851 2.3643e-18)
(5.20939 -0.878112 -1.63958e-18)
(7.24802 -0.942851 -6.19546e-18)
(9.85414 -1.3388 1.10293e-17)
(9.5167 -0.815137 -4.43818e-18)
(8.83275 -0.132948 0)
(7.6962 -1.29528 0)
(8.85024 -0.140024 0)
(7.74085 -0.233543 0)
(7.78882 -0.44879 9.3169e-18)
(7.52609 -0.132965 1.1466e-17)
(8.23957 -1.27094 -2.14269e-18)
(7.48046 -0.514866 0)
(8.27544 -1.19831 -5.99462e-19)
(7.21515 -1.25297 8.4689e-19)
(7.92532 -0.912003 -3.038e-18)
(12.3552 1.57483 0)
(7.87514 -1.24922 4.14791e-18)
(7.96631 -0.953813 0)
(12.6049 2.01381 2.92878e-17)
(9.12277 -1.41433 -1.50061e-18)
(3.80017 -0.646103 -8.83018e-19)
(7.62994 -1.32497 -2.69999e-18)
(8.26886 -0.509081 -4.6554e-18)
(11.0364 -0.533748 -1.01515e-17)
(8.7236 -1.36298 -3.03671e-18)
(8.59001 -1.37218 -1.40643e-18)
(6.24939 -0.214382 -1.06139e-17)
(6.38562 -0.270755 1.04322e-17)
(8.5698 1.28158 -3.80077e-20)
(10.9777 -0.687504 1.03405e-17)
(8.14827 -1.40392 0)
(5.32114 -0.935184 2.99319e-18)
(7.21383 -1.21636 0)
(4.96855 -0.87392 0)
(9.31028 -1.46144 -2.1789e-18)
(8.08461 -0.742443 4.82566e-18)
(10.0513 -1.4974 0)
(7.69189 -1.40932 0)
(8.03112 -1.24263 0)
(8.01079 -1.2396 -1.02875e-19)
(8.79584 -0.271054 0)
(9.05126 -0.246043 1.87203e-17)
(8.67588 -0.166191 2.17497e-18)
(8.84299 -0.156764 0)
(7.42406 -0.488754 -9.24179e-19)
(9.0632 -1.33541 6.09239e-18)
(9.1888 -1.31968 0)
(8.58329 -0.362546 -3.3648e-18)
(9.62885 0.0195852 -5.7676e-17)
(8.31853 -0.402143 2.7636e-18)
(8.2853 -0.628215 6.15991e-18)
(8.41636 -0.772243 -2.83014e-18)
(6.58908 -0.584008 5.67642e-18)
(6.8033 -0.603608 1.24738e-18)
(10.9359 -0.489034 1.53574e-17)
(9.43788 0.0215763 5.60318e-17)
(8.24562 -1.18722 0)
(7.29458 -0.983648 1.12969e-18)
(9.0908 -1.35407 -5.20251e-18)
(10.2665 -0.0145799 0)
(8.83782 -1.36384 0)
(7.5406 -1.09633 4.4843e-18)
(7.50678 -1.12473 0)
(7.62548 -1.05025 0)
(7.66516 -1.02686 1.68057e-18)
(10.904 -0.321256 2.50688e-18)
(3.45373 -0.612548 4.50016e-18)
(10.395 -0.930353 0)
(6.65845 -0.633408 -5.29328e-18)
(6.72448 -0.0945133 7.53034e-18)
(7.78851 -0.96753 -2.28433e-18)
(8.89984 0.107723 0)
(8.85906 0.102318 1.88327e-17)
(7.74643 -0.98667 2.79368e-18)
(9.88075 -1.41721 3.42571e-18)
(8.1605 1.79299 3.5122e-18)
(9.17763 -1.34093 1.00931e-17)
(9.3932 -0.311918 0)
(8.52587 -0.681303 -1.22101e-18)
(8.27841 -1.66675 1.70886e-17)
(5.54388 -1.15198 -2.61318e-17)
(8.49233 -0.830839 5.7559e-18)
(9.08289 -1.3463 -5.12761e-18)
(5.0466 -1.12659 -2.95504e-18)
(10.0275 -1.32581 -4.85007e-18)
(3.63882 -0.62132 2.10164e-18)
(8.67167 -1.41814 -7.54898e-18)
(8.17744 -1.28851 0)
(9.61346 -1.37731 0)
(7.49308 -0.606181 -2.95074e-18)
(9.32749 -0.3826 0)
(9.03281 0.0782844 -2.46586e-17)
(7.28992 -1.13825 0)
(8.30224 1.36644 -3.16079e-18)
(7.87321 -1.18869 0)
(7.82323 -1.19266 -4.07398e-19)
(7.91608 -1.15034 0)
(7.90488 -1.12481 0)
(7.24662 -1.21159 0)
(10.1929 -1.39354 -5.6593e-18)
(10.7316 -1.45556 8.20482e-18)
(9.20995 -0.156982 -3.69209e-18)
(9.1169 -1.33335 0)
(7.2497 0.901289 5.25353e-18)
(8.98519 -1.43698 4.74769e-21)
(13.3217 -1.07421 2.1794e-17)
(6.72473 -1.12164 1.61577e-17)
(4.57475 -0.76469 -1.44483e-17)
(11.1076 -1.19518 3.21247e-18)
(9.14181 -0.152387 3.07136e-18)
(11.0822 -1.0776 0)
(10.1738 -1.3 1.06382e-18)
(8.57771 0.000100106 9.12702e-18)
(9.12491 -0.178184 -2.10341e-17)
(11.58 -1.39362 0)
(12.998 -1.16796 3.27073e-18)
(14.7956 -0.98621 -2.26972e-17)
(11.2044 2.28432 -2.26071e-18)
(8.58001 -0.44825 0)
(9.09994 -0.0518131 0)
(9.93536 -0.0118539 7.40389e-19)
(9.58277 -0.00608398 1.04445e-18)
(10.8975 -1.12366 6.92009e-18)
(8.88599 -0.0699951 0)
(10.1063 -1.10961 7.28209e-18)
(10.1367 -1.0454 0)
(7.76201 -1.04757 0)
(7.80529 -1.02338 0)
(6.51194 1.50304 1.79537e-17)
(9.76325 -0.955324 2.48618e-18)
(10.1044 -1.35574 -1.43682e-18)
(11.038 -1.23047 0)
(8.72637 -1.36523 -2.16027e-18)
(10.9621 -1.1959 -3.68256e-18)
(10.1659 -1.2566 1.87157e-18)
(15.0272 -0.0463666 0)
(7.73451 -1.32578 -3.71464e-18)
(1.82149 0.227128 6.5623e-17)
(7.4312 -0.767712 1.74446e-18)
(7.46611 -0.720988 -6.91764e-18)
(7.37951 -0.773841 0)
(2.06761 0.945052 4.17182e-18)
(7.34086 -0.743072 0)
(8.34799 -0.791553 0)
(7.68167 -1.27473 1.57106e-18)
(7.24718 -1.20197 -1.70854e-18)
(6.89638 -1.19528 9.12687e-19)
(8.27006 1.95504 -2.708e-18)
(10.1079 -1.27414 1.8068e-18)
(6.45854 0.0191753 6.14643e-18)
(8.20962 -0.44528 -2.05877e-17)
(7.63223 -0.972511 2.99755e-18)
(7.58915 -1.00513 0)
(9.14163 0.034873 -2.23437e-17)
(7.71676 -0.921611 -5.16166e-18)
(7.75866 -0.900268 1.85302e-18)
(5.77434 -0.944124 0)
(6.87608 -0.30381 9.25661e-19)
(5.68847 -0.100948 2.54476e-17)
(8.3425 0.200466 0)
(10.2351 0.0577861 -1.4747e-17)
(2.8505 0.52461 -3.7324e-17)
(9.03369 0.0206667 1.85155e-17)
(9.05996 0.0304761 -4.16182e-17)
(8.83358 -0.015451 -3.23374e-17)
(6.9528 -0.23139 -1.62902e-18)
(7.6139 -0.758752 0)
(8.81707 0.00815762 0)
(8.04754 -0.282734 3.26652e-18)
(8.12287 -0.462412 2.08581e-17)
(7.66565 -0.729365 7.1955e-18)
(8.50463 -0.00553646 0)
(8.99664 0.0493779 3.48874e-17)
(8.97342 0.0627254 3.5129e-17)
(8.96807 0.0380942 5.82276e-19)
(7.84747 -1.27846 -3.34049e-18)
(10.347 -1.21755 -2.71766e-19)
(8.27793 -0.0271075 1.18376e-17)
(9.72839 0.0719933 -1.35547e-17)
(8.96811 0.00223494 0)
(7.84332 -1.4058 0)
(8.74871 0.571721 9.49525e-18)
(8.04403 -0.375058 0)
(7.87147 -0.932137 1.90218e-18)
(5.77086 -1.0819 0)
(4.60671 -0.716042 -6.76287e-19)
(8.26789 -0.755779 3.7608e-18)
(4.73918 -0.96009 -1.53036e-18)
(7.86147 -0.970017 -4.63857e-18)
(8.15001 0.82988 1.57698e-18)
(6.67697 1.27614 1.09776e-17)
(8.85398 -0.0432343 -1.55778e-17)
(6.24581 0.996138 0)
(8.22207 -1.30912 1.14129e-18)
(7.15667 -0.798881 -1.44528e-18)
(8.88555 0.0152802 2.82743e-17)
(8.98645 0.0123298 0)
(9.39058 -0.0304699 5.74893e-17)
(5.91905 0.940224 -1.00926e-17)
(6.03753 -1.07592 -3.04674e-20)
(8.79081 0.0548286 3.16812e-18)
(7.83449 -0.901882 -3.87933e-18)
(7.33959 -0.826985 0)
(6.64605 -1.15241 0)
(8.88565 -0.0359054 7.50687e-19)
(8.80933 -0.0778263 -1.10459e-17)
(8.93433 0.034275 -2.31005e-18)
(8.99841 -0.0485897 7.49064e-19)
(4.04634 -0.722653 -5.58946e-18)
(11.235 -1.27534 4.47732e-19)
(8.88012 -0.0415885 -9.82302e-19)
(8.62426 -0.258788 0)
(8.66549 -0.158535 3.68923e-18)
(8.56974 -0.208359 0)
(8.64141 -0.331186 0)
(8.57705 -0.345392 0)
(4.99583 -0.875605 5.42787e-19)
(6.19082 -1.09253 1.25362e-18)
(9.18172 -0.0688657 0)
(6.51117 0.0270928 5.49105e-17)
(9.69568 -0.293144 -2.92072e-17)
(8.88312 0.112166 -1.29827e-17)
(8.87327 -0.0458575 -1.73591e-17)
(6.42479 -1.14107 -9.69918e-19)
(8.57981 -1.04212 0)
(9.8604 -0.0263171 -5.40112e-17)
(5.24019 0.206416 -1.5162e-17)
(8.72593 -0.0915108 -8.48674e-18)
(8.67373 -0.0874624 9.56654e-18)
(8.86123 -0.0644589 7.44289e-18)
(8.98112 -0.0356035 7.3403e-18)
(8.87843 -0.0507367 -1.53723e-17)
(8.8573 -0.0396 3.20076e-17)
(9.33397 -1.42499 -3.44469e-18)
(9.06497 0.0285711 -1.99039e-17)
(7.61531 -1.15008 -4.08008e-18)
(8.86159 -0.0352868 -6.52014e-17)
(9.88432 -1.36117 1.28783e-18)
(10.1542 -0.841777 0)
(8.92775 0.127006 1.4936e-17)
(8.9303 0.13131 -3.1997e-18)
(9.00893 -1.37911 -2.81822e-20)
(10.1782 -0.907078 0)
(11.8616 0.327808 0)
(10.1438 0.11073 -6.94081e-17)
(9.23125 0.0206858 -1.99874e-17)
(9.63411 0.062164 0)
(8.39502 0.149212 1.23419e-17)
(8.45657 -0.384122 0)
(9.14304 0.042456 4.07579e-17)
(9.05693 0.0839095 -6.81721e-17)
(9.19729 0.078585 5.23452e-17)
(8.75189 -0.115415 5.5731e-19)
(8.81461 -0.0586384 -7.91554e-19)
(11.8095 0.0607813 -1.43061e-17)
(11.3396 -0.134856 -1.04506e-17)
(11.1929 -0.252444 1.02649e-17)
(11.195 0.2662 -3.60349e-17)
(11.4053 0.113474 9.95315e-18)
(9.08544 0.0782343 2.92755e-17)
(9.0022 0.0559497 -3.67167e-17)
(8.86506 0.2706 0)
(8.8332 -0.424181 2.60193e-17)
(8.90044 0.0575623 2.1718e-17)
(8.88037 -0.472099 4.17761e-18)
(9.02742 -0.0911095 -2.77832e-17)
(9.03581 -0.0736275 2.56396e-17)
(9.6841 0.0580995 -1.3699e-17)
(8.36449 0.0509241 0)
(3.52046 -0.768214 -1.09257e-18)
(8.3424 0.712806 -1.28561e-17)
(8.52802 0.814267 8.13e-18)
(9.08399 -0.0567973 -2.39742e-17)
(9.02399 -0.0661852 0)
(8.99277 -0.114522 0)
(8.92401 -0.00759948 1.85527e-17)
(9.02009 -0.123573 3.63899e-19)
(11.9635 -0.114796 -3.30397e-18)
(11.8287 -0.140094 9.17396e-18)
(10.5341 0.0188263 -6.99602e-18)
(10.6791 -0.858562 -5.05606e-18)
(10.3991 -0.0516833 2.80044e-17)
(8.31666 -1.16146 2.52485e-19)
(10.0601 -0.311207 0)
(8.88607 0.0824009 1.47213e-19)
(9.68695 -0.0496035 2.20077e-17)
(9.36503 -0.00919854 -5.52871e-18)
(9.05635 -0.0243242 -1.76871e-17)
(8.92662 0.0615472 -2.09608e-17)
(10.0599 -0.077961 5.4697e-18)
(9.93602 -0.0638398 -7.71284e-18)
(9.52958 -0.0108831 0)
(9.64439 -0.0108172 5.4846e-18)
(9.42396 -0.0277872 -9.6012e-18)
(10.0134 0.113867 -6.87067e-18)
(9.93879 0.0551195 3.54558e-18)
(8.96256 0.059528 5.4598e-17)
(7.74349 -0.0120278 0)
(7.70834 -1.30784 1.46718e-18)
(8.00588 -1.33276 0)
(8.00493 -1.26312 -9.84884e-19)
(7.79339 -1.3131 4.57878e-19)
(7.3198 -1.24641 -5.78882e-19)
(8.01086 -1.25841 1.09962e-19)
(9.98909 -0.124664 5.44134e-17)
(9.36546 -0.0803594 -5.33461e-17)
(10.1723 -0.0780389 -4.61336e-17)
(9.53268 -0.0579892 0)
(10.0652 -0.221451 4.6062e-17)
(8.72138 -0.369489 0)
(7.95382 -1.0244 0)
(8.85721 0.0453551 -1.68245e-17)
(7.08509 -1.25231 8.0902e-18)
(8.40086 0.325843 -4.6458e-18)
(10.059 -0.442657 0)
(7.37645 -0.406994 7.65061e-18)
(9.73362 0.0352295 3.33749e-18)
(6.62138 0.00517426 0)
(8.62605 0.59344 -1.36036e-17)
(9.56785 -0.075463 7.11379e-17)
(7.98401 -1.03793 3.09371e-18)
(7.37441 -0.570094 6.88358e-18)
(9.01059 0.00647467 3.86789e-17)
(8.44033 -0.676564 -1.60787e-18)
(6.91682 -0.145238 0)
(9.6752 0.0484021 3.09522e-18)
(6.61717 -0.00971008 0)
(7.52419 -1.15174 1.71964e-18)
(10.0537 0.0569933 -6.27175e-17)
(6.92264 0.120853 0)
(7.50209 -1.17528 2.33171e-18)
(8.38111 -0.613106 0)
(10.0711 -0.10074 -8.19043e-18)
(8.83104 0.634147 -7.6177e-19)
(8.79532 -0.0178081 2.4579e-17)
(6.71621 0.179142 -3.28377e-17)
(9.18532 -0.0917138 0)
(6.43899 0.0134926 1.2033e-16)
(8.56103 -0.153107 -9.57609e-18)
(8.5919 -0.156428 0)
(7.14439 -0.709141 0)
(10.3013 -0.0721739 2.57115e-16)
(10.0616 -0.181155 -4.65784e-17)
(3.71613 -0.127212 -4.37154e-18)
(9.9989 0.141825 9.11541e-17)
(10.1739 0.314493 2.6383e-17)
(8.63036 -0.191914 0)
(6.17389 -1.05058 0)
(7.07166 -0.762597 0)
(5.25218 -0.90297 0)
(2.56006 -0.151136 0)
(8.15262 -1.33261 0)
(8.80978 3.50079e-05 6.9079e-19)
(8.94242 0.0434843 0)
(8.98395 0.0284066 -1.96148e-17)
(8.93078 -0.0236515 -1.33499e-18)
(8.90929 -0.113864 0)
(8.5091 0.330828 0)
(9.18998 0.00297081 2.04436e-17)
(8.90715 -0.0238058 2.29097e-17)
(9.92202 0.00061075 0)
(8.71939 -0.118942 6.86008e-18)
(8.97601 -0.0568059 1.98412e-18)
(10.5213 -1.00296 -1.72167e-18)
(10.1013 0.0331244 -5.63756e-18)
(9.4299 -0.0278016 6.44535e-18)
(8.88706 0.0143994 3.08666e-17)
(10.177 -0.601467 -7.77315e-18)
(10.6063 -0.97642 -5.45122e-18)
(10.0935 0.461388 -1.16119e-17)
(9.79514 -0.061383 0)
(9.56427 -0.309315 -1.20106e-17)
(6.7866 -0.950665 2.61126e-18)
(8.97087 0.00200491 8.00949e-17)
(9.00842 0.0205957 -8.20445e-17)
(10.1469 -0.684027 -4.25988e-18)
(8.36537 -1.18201 -2.30492e-18)
(8.1297 -1.33824 1.10034e-20)
(10.1402 0.0411942 9.51097e-17)
(10.4388 -1.07823 2.92243e-18)
(6.4041 2.70028 2.71472e-18)
(6.81122 -0.837398 0)
(9.48179 -0.349267 -5.02869e-19)
(8.5944 -0.119759 0)
(8.62828 -0.119571 0)
(9.94942 0.581333 -1.70797e-17)
(8.27649 -1.24538 4.44516e-18)
(9.53198 -0.164999 -2.7567e-17)
(9.02677 0.175776 1.4449e-17)
(8.51818 -1.07893 -4.54146e-18)
(8.86803 -0.00920717 0)
(8.99392 0.000469441 -1.47066e-17)
(8.08495 -1.34442 -1.35428e-18)
(9.02197 0.196005 9.26644e-19)
(8.90416 0.0191538 0)
(9.22797 -1.23613 -6.45301e-18)
(7.27818 -0.664332 6.96266e-18)
(8.99966 0.135929 3.35591e-17)
(8.90083 0.016407 -2.26155e-17)
(9.73408 -1.26473 1.83571e-18)
(10.6144 -1.01783 3.62403e-18)
(8.91464 0.113178 0)
(8.65797 -1.38548 1.60898e-18)
(7.2293 0.19934 0)
(8.97646 0.130097 0)
(8.68049 -0.0239313 6.34335e-18)
(6.68305 0.21213 0)
(8.69837 0.0640289 -5.63713e-18)
(10.5571 1.46503 8.19872e-18)
(8.61378 -0.313172 3.42063e-18)
(8.11393 -1.34193 0)
(8.55246 -0.280472 8.16087e-18)
(8.68242 -0.210563 -1.20256e-17)
(8.50639 -1.38123 4.79634e-19)
(8.8787 -0.231673 -1.22803e-18)
(9.77147 -1.31951 0)
(5.09469 -0.927608 -2.12613e-18)
(8.99774 -1.41047 -9.57678e-19)
(10.4654 -0.410876 0)
(4.65896 -0.879296 -1.10738e-17)
(6.11648 -0.990934 6.83676e-18)
(6.4138 -1.19865 -1.0567e-17)
(4.92742 -0.91648 0)
(11.2578 7.33848 1.35467e-17)
(9.46573 0.0893786 0)
(10.2207 -0.296344 0)
(9.26604 0.0406939 7.06218e-18)
(6.15655 -0.0200988 0)
(9.79864 -0.458287 6.03157e-17)
(4.39422 -0.688713 1.86118e-17)
(9.53652 -1.38247 -3.52457e-18)
(9.65362 -1.35524 0)
(8.86462 -0.0766955 -2.66182e-17)
(9.27929 0.0531593 -4.75543e-17)
(9.54334 -1.37683 1.12338e-18)
(6.7279 -0.938332 5.44207e-18)
(10.2778 -0.245663 1.34755e-17)
(10.148 -0.182226 -1.93673e-17)
(9.14176 -1.35127 2.69164e-18)
(7.99098 -1.27165 1.80836e-18)
(9.92283 -1.10966 0)
(7.11754 -0.956209 2.3429e-18)
(7.03122 -0.978814 7.63564e-19)
(7.22073 0.00680921 1.3271e-17)
(5.64756 -0.369089 4.52505e-18)
(8.63271 -0.0263954 -6.63474e-18)
(6.94302 -1.00594 6.48545e-18)
(9.87481 0.161401 -1.09044e-16)
(9.11857 0.0699472 4.41793e-17)
(7.10555 -1.22194 8.34542e-18)
(7.93873 -1.29899 0)
(7.12539 -0.987414 0)
(6.93219 -1.19297 7.8494e-19)
(9.26179 -1.34175 -3.49244e-18)
(9.06955 0.0460336 2.32436e-17)
(7.98741 -1.29192 -1.59876e-18)
(9.06556 0.0423466 -5.20942e-17)
(8.90129 -0.0802585 2.08084e-17)
(9.86887 -1.06627 -1.54997e-17)
(8.53344 -1.37234 -1.58294e-18)
(8.20901 -1.35849 0)
(9.99158 -1.28675 0)
(10.0495 -1.24522 1.9419e-18)
(9.02314 -0.054333 -3.59064e-17)
(9.97294 -1.32746 0)
(8.55179 -1.08164 2.10997e-18)
(8.89416 -0.0417906 -1.20496e-17)
(8.86638 -0.0329797 1.30291e-17)
(7.57438 5.99323 4.59991e-18)
(10.0028 -0.895586 0)
(9.9445 -1.05337 0)
(9.81338 -1.20054 0)
(10.0664 -0.82845 0)
(9.28969 -1.33717 0)
(8.81705 0.0761396 1.94764e-18)
(10.0566 -0.757863 0)
(8.92151 0.101506 -5.31462e-18)
(8.89324 -1.19806 -2.33837e-18)
(3.2803 -0.376894 0)
(4.47253 -0.431832 -1.37992e-17)
(7.25393 -1.26145 0)
(8.98621 0.0303353 0)
(9.34169 0.0254224 0)
(3.51338 -0.613045 5.66476e-18)
(9.44997 0.029556 -2.70397e-17)
(8.95485 -0.972582 -3.62349e-18)
(8.72021 -0.815319 1.23476e-18)
(11.9801 -0.413299 2.32387e-18)
(11.7833 -0.503687 6.3607e-18)
(7.25303 -1.23334 0)
(9.83968 -1.1562 0)
(9.37537 -0.931034 5.54026e-18)
(8.85525 0.0279206 0)
(8.95686 0.0271409 1.00269e-16)
(8.36955 -1.23826 0)
(7.04619 -0.971589 0)
(9.39165 -1.06195 0)
(6.09507 -1.02719 1.04141e-18)
(9.05655 -0.00395742 3.28915e-17)
(9.01706 -0.0211412 0)
(8.58903 -1.10057 -7.15635e-19)
(9.74409 -1.23253 4.74231e-18)
(9.00589 0.00354612 0)
(7.7829 -1.31727 1.88284e-18)
(12.0548 -0.82376 -5.12024e-18)
(8.44027 -1.27822 1.24599e-18)
(9.36561 -1.36781 1.76066e-18)
(8.70557 -1.10992 0)
(10.6019 -1.48829 0)
(5.47607 -0.966466 -3.32425e-18)
(9.02127 0.00569616 2.35508e-17)
(6.4635 0.83312 -5.78108e-19)
(6.93805 -0.955642 6.31115e-18)
(7.73437 -0.638276 7.59109e-18)
(7.73531 -0.577994 2.56593e-18)
(7.67334 -0.515741 5.75318e-18)
(11.7692 -0.704428 4.22602e-19)
(8.68005 0.366754 0)
(4.92412 -0.891632 0)
(9.2264 0.00741159 2.05896e-17)
(9.06857 0.0224685 -1.93582e-17)
(9.05853 0.0152292 0)
(9.27518 -0.0439277 2.83458e-17)
(9.31217 -0.0512771 2.53116e-17)
(10.6463 -0.212155 0)
(3.52528 -0.624421 0)
(8.86895 -0.0392506 -1.87507e-18)
(8.58139 0.397276 0)
(8.89741 -0.051377 1.44558e-17)
(10.9668 -1.42001 0)
(8.39749 -1.33004 -9.9502e-19)
(9.88477 -0.0342053 5.7055e-17)
(5.4661 -1.09348 -6.21564e-18)
(8.29309 -1.27093 -1.1051e-18)
(5.07701 -0.846509 1.77154e-18)
(9.4189 0.0529182 0)
(6.57689 4.74474 1.78143e-18)
(9.09537 -0.026496 5.54208e-19)
(11.1883 0.883012 3.30998e-17)
(11.6285 0.750417 0)
(11.1992 -1.37741 2.37757e-18)
(11.6829 0.452307 0)
(8.50964 -1.16261 3.73845e-18)
(7.82561 -1.13467 0)
(8.09017 -0.525502 1.29126e-19)
(10.556 -1.1585 0)
(9.24148 -0.346303 0)
(8.4996 -1.18865 -2.82143e-18)
(8.17095 -1.26844 5.58438e-18)
(5.35679 -0.810165 -2.86877e-18)
(10.0661 -1.3816 0)
(9.11994 -0.051519 2.19816e-17)
(9.21658 -0.266611 2.65361e-17)
(4.77808 -0.863082 -7.57311e-18)
(8.1725 -0.479757 -5.03947e-18)
(7.47888 -1.24602 4.39254e-18)
(5.99373 -0.836919 1.05434e-17)
(7.53706 -1.20343 -4.60193e-18)
(7.09261 -0.390881 6.86177e-18)
(11.6934 -1.3818 -1.11178e-17)
(7.10543 -0.206299 -2.20863e-18)
(7.4604 -1.0272 -2.33216e-18)
(7.50541 -1.02449 1.9496e-18)
(7.44368 -0.990077 0)
(7.42704 -1.01187 3.3864e-20)
(11.2602 7.32775 0)
(10.2251 4.24735 1.27257e-17)
(8.71448 -1.33252 0)
(6.66914 0.0343134 -5.79147e-17)
(8.68923 -1.35523 -7.0333e-18)
(8.65786 -0.253468 0)
(8.32624 -1.3229 4.14836e-20)
(8.71924 -0.27091 8.22558e-19)
(7.07494 0.00638011 -9.53562e-17)
(8.86563 -0.132672 -4.21255e-20)
(8.60147 0.0401277 1.46544e-17)
(8.64711 0.0292023 -2.16971e-17)
(8.8151 -0.16831 -9.47972e-18)
(8.81828 0.405908 -2.48298e-18)
(6.54817 -0.874217 -7.84623e-19)
(8.86988 -0.638452 6.59542e-19)
(9.58428 0.0207459 0)
(8.3338 -1.27072 0)
(7.68221 -0.126898 -1.45879e-18)
(8.90353 0.434023 -8.45478e-19)
(6.40657 0.0173824 0)
(4.12587 -0.553571 -4.03874e-18)
(11.3541 6.21094 -2.10775e-17)
(8.94215 0.487182 1.88089e-18)
(7.78802 -0.70888 6.78851e-18)
(8.27544 -0.485457 2.03381e-18)
(11.4013 -0.958093 0)
(7.33331 -0.163963 0)
(9.12304 -0.4795 -1.64267e-17)
(11.8637 -1.06516 0)
(6.02883 -0.538192 -3.76494e-18)
(10.5204 -0.916991 0)
(9.92557 -0.920522 0)
(9.17827 -0.377036 -2.88339e-18)
(10.0222 -0.985925 0)
(9.98246 -1.10569 -3.8492e-18)
(6.40893 -0.474825 1.37725e-18)
(6.61411 -0.397322 3.90304e-18)
(10.5102 -0.735973 0)
(10.6221 -0.842042 5.50985e-18)
(9.09907 0.548639 -1.87388e-17)
(10.6246 -0.756348 0)
(9.19521 0.531649 3.86428e-17)
(9.58632 0.184604 1.03609e-17)
(8.8862 0.0917276 -1.6381e-17)
(9.1727 -0.0112202 -4.9985e-19)
(9.14166 0.287066 -4.9894e-17)
(7.01557 0.0150382 -9.64537e-17)
(8.82106 -1.44579 0)
(6.49329 0.00613702 -8.0855e-17)
(9.03998 0.467024 4.23041e-18)
(10.104 0.109484 1.60253e-17)
(9.77892 0.140777 3.0361e-17)
(9.51259 0.0234233 -2.69766e-17)
(10.0681 -0.0355527 -5.72142e-17)
(9.81312 0.201213 0)
(7.08351 -0.0958801 -2.59244e-16)
(9.78322 -0.191408 5.10163e-17)
(12.3258 0.135313 7.40969e-18)
(6.58902 0.0137035 0)
(8.89374 0.113703 -4.32702e-17)
(12.4742 -0.294556 1.18548e-17)
(10.289 -0.558373 -1.63036e-17)
(7.35694 -1.21138 -4.58363e-18)
(9.31415 0.395605 2.15988e-17)
(10.1699 6.55102 -2.84327e-18)
(9.30419 0.307135 -9.59346e-17)
(8.77932 -0.628874 -2.51168e-18)
(8.62968 -0.529459 1.18517e-17)
(7.42658 0.64092 -1.5261e-17)
(10.9222 6.69412 -8.76219e-18)
(8.58607 -0.725205 -3.64968e-18)
(6.58902 -0.224387 0)
(9.54535 0.116575 0)
(9.62384 -0.131749 -5.73728e-17)
(6.8162 0.248841 0)
(6.35121 -0.132836 1.43291e-16)
(8.89726 0.216071 -8.59364e-17)
(6.3639 0.0974351 0)
(8.92553 -0.210021 0)
(6.40017 -0.0150696 0)
(7.2327 -1.07033 1.32088e-18)
(8.92269 -1.37327 -3.6584e-18)
(9.07637 -0.0992219 -2.00893e-18)
(8.71445 -1.37027 0)
(10.2471 -1.06306 1.08498e-17)
(10.8628 -0.717251 -3.15693e-18)
(9.09404 -0.0598154 0)
(12.0257 -1.37528 4.50267e-18)
(7.28373 -1.1444 1.36546e-18)
(12.2655 -1.23993 1.11958e-18)
(4.00048 -0.592344 1.32106e-17)
(5.47629 -0.849216 8.87888e-18)
(7.35747 -1.04459 0)
(7.31269 -1.04268 -1.22123e-18)
(11.9204 -1.38028 -7.16942e-18)
(8.0624 -0.933996 0)
(8.86218 -0.035621 3.8258e-17)
(8.89807 -0.0248135 -1.82651e-17)
(7.9363 -0.690473 7.86844e-18)
(8.86888 -0.0251054 0)
(10.3225 -1.50233 -3.51199e-18)
(9.07789 -1.45263 0)
(6.98379 -1.2742 2.06586e-19)
(7.87463 -0.648 5.39039e-19)
(9.34279 -1.44179 1.06474e-18)
(6.09388 0.357559 -5.33567e-18)
(6.77521 -1.27564 -2.51944e-18)
(6.59109 -0.0670205 9.35496e-17)
(6.54262 4.20358 -1.34203e-18)
(6.15888 0.19556 -5.01594e-18)
(9.47462 -0.713444 1.16301e-17)
(6.43931 0.170933 5.04295e-18)
(6.72597 0.309286 0)
(9.07434 0.180972 3.28073e-17)
(12.4363 -1.09784 1.89631e-18)
(8.20109 -1.13919 0)
(4.4873 -0.69792 0)
(8.75793 0.0421135 8.05532e-18)
(8.67664 0.048966 -6.14755e-18)
(6.50131 -0.972444 -3.41909e-18)
(6.22472 -1.03304 -7.36062e-19)
(6.76018 1.20344 3.69557e-17)
(8.40985 0.851115 -1.87912e-17)
(8.21309 -1.16934 -1.33046e-18)
(7.47531 0.480265 1.47844e-17)
(7.29142 2.00051 -3.55487e-18)
(5.20293 -0.950002 0)
(6.86199 -0.989079 -7.69066e-18)
(5.18317 -0.961786 1.49956e-18)
(7.67361 2.42621 5.51395e-17)
(6.10279 -0.992352 -3.04375e-17)
(8.16153 -1.21325 1.52211e-18)
(7.55678 1.62095 2.00834e-17)
(4.25909 -0.680752 8.89707e-19)
(7.47643 0.13024 -2.60127e-17)
(9.06845 0.294363 0)
(8.57819 -1.01746 1.91162e-18)
(7.64935 0.137809 0)
(9.15348 0.257715 2.41419e-17)
(8.0983 -1.26174 -1.7105e-19)
(8.10439 -1.30041 1.44922e-18)
(7.59075 -0.6796 4.86357e-18)
(8.84142 -0.183691 2.37956e-18)
(8.12863 -1.27272 1.71843e-19)
(12.1657 -0.961962 6.12644e-18)
(9.01083 0.172293 2.5575e-17)
(9.76976 -1.03919 -2.28327e-18)
(7.9333 5.8439 0)
(5.84687 4.09853 1.69272e-18)
(8.03841 -1.30012 -1.66528e-18)
(10.7613 -1.05006 -2.63471e-18)
(7.8633 -0.580002 0)
(12.5812 -1.07257 8.292e-20)
(10.6734 -1.06167 0)
(10.3015 -0.729023 0)
(9.67845 -1.3202 1.12072e-20)
(9.6234 -1.34727 -3.35627e-18)
(7.7851 -0.827885 -5.07535e-18)
(12.7114 -0.893666 0)
(6.35603 -1.098 -2.54767e-18)
(7.94061 -0.524517 0)
(12.8405 -1.20317 -5.00629e-18)
(9.5841 -0.110869 -1.43912e-17)
(10.2815 -1.08409 -5.71563e-18)
(12.9561 -0.863736 3.33048e-18)
(9.57134 0.638556 2.25733e-17)
(7.23521 -1.29298 5.1352e-19)
(6.82302 -1.15968 0)
(6.78501 -1.15942 -2.74928e-18)
(8.34038 -1.3875 3.98147e-18)
(8.5909 -0.787864 0)
(10.007 -0.0237203 7.48805e-18)
(8.12392 -1.20045 -1.59956e-18)
(9.42204 0.473454 -1.52035e-17)
(9.42799 0.564874 -2.21164e-17)
(9.89762 -0.542579 0)
(9.08611 -1.30458 0)