/*--------------------------------*- C++ -*----------------------------------*\
| =========                 |                                                 |
| \\      /  F ield         | OpenFOAM: The Open Source CFD Toolbox           |
|  \\    /   O peration     | Version:  2206                                  |
|   \\  /    A nd           | Website:  www.openfoam.com                      |
|    \\/     M anipulation  |                                                 |
\*---------------------------------------------------------------------------*/
FoamFile
{
    version     2.0;
    format      ascii;
    arch        "LSB;label=32;scalar=64";
    class       volScalarField;
    location    "227";
    object      nut;
}
// * * * * * * * * * * * * * * * * * * * * * * * * * * * * * * * * * * * * * //

dimensions      [0 2 -1 0 0 0 0];

internalField   nonuniform List<scalar> 
2283
(
0.174344
0.230524
0.0035764
0.00438109
0.00723149
0.00818073
0.129687
0.132261
0.00147871
0.00479776
0.00356769
0.0972374
0.00303128
0.0601654
0.0887784
0.12124
0.12035
0.0443989
0.182685
0.00513853
0.0130113
0.011598
0.140029
0.139913
0.161802
0.211273
0.135228
0.0295367
0.135206
0.002153
0.00129007
0.130957
0.126543
0.140708
0.140203
0.126866
0.120875
0.140799
0.140622
0.296512
0.225618
0.0514917
0.00793933
0.00894503
0.0326103
0.0263037
0.0100505
0.0238099
0.0192194
0.137924
0.0128502
0.133016
0.00486871
0.0238588
0.100599
0.0131669
0.0393864
0.0583202
0.00235904
0.102959
0.0512532
0.0742379
0.0133127
0.0462942
0.00106272
0.161977
0.217776
0.0534955
0.00617017
0.00993669
0.0508907
0.0047007
0.0961077
0.192041
0.0730955
0.00641688
0.141522
0.139587
0.140536
0.141052
0.0775171
0.101623
0.0235003
0.00407978
0.00136581
0.00392446
0.00986725
0.0313041
0.0111952
0.0127627
0.04254
0.00526958
0.0268389
0.0803513
0.0608706
0.14168
0.105388
0.00703851
0.145085
0.00503076
0.0960874
0.105987
0.292044
0.0116704
0.00231667
0.00302647
0.353835
0.15372
0.00359627
0.00247476
0.144261
0.132943
0.132792
0.066808
0.0536113
0.00312162
0.0062607
0.155315
0.00801552
0.0386773
0.0787506
0.0123436
0.136901
0.136549
0.00118262
0.00922647
0.0421268
0.0118724
0.0107673
0.0138673
0.0308146
0.00364822
0.00251576
0.0971531
0.0367277
0.0224023
0.113596
0.112993
0.00817817
0.00706408
0.0472945
0.00971489
0.0144438
0.042088
0.0598144
0.00200708
0.0505305
0.14043
0.140063
0.0467419
0.14999
0.0675466
0.105442
0.0968421
0.0100128
0.00947499
0.00506206
0.00437232
0.0358039
0.00775343
0.0519591
0.193879
0.0479916
0.0156319
0.123287
0.0236532
0.128156
0.00926017
0.13275
0.0455685
0.00245723
0.00143257
0.00278274
0.00718575
0.120768
0.00552474
0.0344891
0.0294913
0.00606957
0.00562988
0.0240995
0.0138939
0.00511708
0.00275014
0.0220609
0.017648
0.00186244
0.0077132
0.0156709
0.00357562
0.00367015
0.138591
0.11349
0.054372
0.0281538
0.0341736
0.0554223
0.0611644
0.0192134
0.0180494
0.043398
0.0479536
0.00352843
0.0200194
0.00213716
0.0151842
0.0101238
0.0196647
0.0612787
0.0210594
0.139453
0.140378
0.00191434
0.0351992
0.0141962
0.039316
0.00670545
0.0381029
0.0236473
0.00159603
0.00203435
0.0831745
0.00240389
0.0127902
0.00668737
0.00189638
0.00583973
0.00918861
0.00470258
0.128875
0.00812277
0.00253533
0.00336617
0.0231927
0.0270565
0.0378905
0.00220118
0.0981506
0.0020863
0.128178
0.0789652
0.0332528
0.0014689
0.124471
0.00948781
0.10367
0.0104692
0.0112094
0.0798174
0.124574
0.166764
0.00239652
0.00212829
0.0718656
0.00135729
0.016062
0.00203088
0.0820083
0.100489
0.0128747
0.0116007
0.0867794
0.0169209
0.00209419
0.00230514
0.0204343
0.0697223
0.0716248
0.0084541
0.0769463
0.0826302
0.075136
0.0744261
0.0126269
0.0545772
0.0190325
0.00670306
0.0431668
0.0409108
0.0110625
0.0401128
0.0310162
0.0134938
0.00146884
0.010493
0.0900572
0.0541992
0.0131278
0.0124154
0.0252165
0.0265682
0.105625
0.0491418
0.00644068
0.00209906
0.00354499
0.00249936
0.00873622
0.0117705
0.00998975
0.0057544
0.0122128
0.0120657
0.068757
0.0950243
0.0511204
0.0743463
0.0525935
0.0222411
0.0215234
0.036454
0.160365
0.0259463
0.0794555
0.0621157
0.0235619
0.0268111
0.059957
0.151974
0.0195552
0.0191807
0.0176736
0.193505
0.0155833
0.0175663
0.0149671
0.0229389
0.0257224
0.066727
0.0012106
0.0503474
0.0230401
0.0370943
0.0340727
0.142204
0.140523
0.0310288
0.0144053
0.0772353
0.0197925
0.114406
0.0699996
0.00344557
0.00166694
0.0538009
0.0190108
0.00182797
0.0207402
0.00103989
0.00910053
0.00984637
0.0065858
0.0498756
0.106159
0.140585
0.00770465
0.0947988
0.0164451
0.0153346
0.0202442
0.0225115
0.00662513
0.00685791
0.00783699
0.128294
0.020801
0.0493125
0.00990057
0.00696653
0.00475759
0.00329999
0.0200563
0.129937
0.0242499
0.0217432
0.137744
0.126624
0.00722097
0.00720816
0.00822507
0.00611254
0.0988518
0.143608
0.178044
0.1596
0.0256866
0.109102
0.0401286
0.045794
0.0264193
0.029647
0.0256494
0.0595362
0.0184664
0.0190808
0.0166113
0.021049
0.0251709
0.0122718
0.00429866
0.00274696
0.0363199
0.040859
0.033742
0.00356326
0.0340928
0.0608087
0.00964633
0.00801905
0.00647445
0.00401178
0.0243917
0.0331503
0.0942515
0.0290118
0.0254541
0.144196
0.0355733
0.0389348
0.00311349
0.037302
0.0178554
0.121301
0.209304
0.00616439
0.139962
0.140296
0.0909826
0.0417603
0.044815
0.112334
0.0972406
0.0889878
0.0492126
0.132779
0.140467
0.140626
0.140496
0.00950815
0.0254551
0.117491
0.140722
0.139342
0.00671174
0.127674
0.0915943
0.0400363
0.00304862
0.00149578
0.0646624
0.00149478
0.035907
0.104331
0.0354937
0.0823666
0.0345389
0.00780954
0.0258618
0.118418
0.133772
0.160972
0.0274701
0.00296032
0.142085
0.0415385
0.0296279
0.00454559
0.117177
0.130372
0.144535
0.135822
0.00176248
0.0170503
0.121861
0.119931
0.130423
0.125046
0.111974
0.109476
0.00258628
0.00354222
0.214139
0.193327
0.243426
0.141352
0.13716
0.00412424
0.0210629
0.268372
0.0137784
0.139744
0.138045
0.145931
0.149595
0.121717
0.111122
0.0131025
0.139872
0.0156617
0.107391
0.0185053
0.0637485
0.140766
0.140788
0.014668
0.0582116
0.0495148
0.232546
0.150317
0.183616
0.124563
0.0352021
0.145591
0.144566
0.146649
0.132935
0.145975
0.0466206
0.0575839
0.0595145
0.0709247
0.0620763
0.140512
0.140796
0.136759
0.0588935
0.126861
0.0620833
0.135272
0.139483
0.152461
0.123078
0.00126136
0.113797
0.117778
0.143262
0.139776
0.132865
0.146264
0.131457
0.0357375
0.0400692
0.0900689
0.0464057
0.0936974
0.0224439
0.0978879
0.141382
0.16324
0.155318
0.148523
0.141457
0.227753
0.195648
0.155955
0.164453
0.154642
0.250186
0.217807
0.141927
0.0900214
0.00934105
0.0104391
0.0076911
0.0094324
0.00765691
0.00901409
0.305002
0.164815
0.237385
0.176161
0.192262
0.102466
0.0325268
0.141312
0.0043993
0.123019
0.147997
0.0545653
0.323292
0.248429
0.124482
0.152843
0.0318657
0.0464559
0.310493
0.0728193
0.282084
0.40967
0.313163
0.0137883
0.157982
0.131159
0.0110617
0.0808796
0.178952
0.126548
0.263723
0.256457
0.424545
0.32958
0.129449
0.130541
0.030033
0.157716
0.223179
0.00505962
0.322067
0.317898
0.12731
0.00345701
0.0257871
0.00200945
0.00272367
0.00529744
0.139354
0.140926
0.140008
0.129824
0.127921
0.127189
0.14793
0.112756
0.155065
0.134638
0.14861
0.0408902
0.257079
0.371197
0.140779
0.0795384
0.0408586
0.109916
0.376665
0.112793
0.01172
0.139849
0.139993
0.074851
0.0203564
0.00390706
0.203417
0.0358452
0.0348875
0.016955
0.110311
0.133511
0.134037
0.113992
0.0145915
0.144104
0.139801
0.0277859
0.140116
0.141468
0.0128572
0.139946
0.141113
0.0321699
0.0364127
0.14055
0.140566
0.027231
0.0363824
0.143018
0.0110188
0.0630662
0.140459
0.294744
0.267604
0.140149
0.085813
0.0480226
0.00959002
0.0423878
0.0547534
0.0109392
0.075963
0.0223774
0.00187433
0.0122472
0.0794164
0.00353672
0.00549106
0.00540628
0.00294233
0.00405436
0.16999
0.293806
0.312194
0.244051
0.145182
0.00330234
0.0161038
0.0193403
0.0947706
0.443803
0.0165117
0.0122289
0.0925922
0.0995235
0.0179553
0.00821146
0.0430676
0.015361
0.0128048
0.0593346
0.0133368
0.139933
0.00953722
0.227482
0.296991
0.00763496
0.00910159
0.0143701
0.00696453
0.0185185
0.140478
0.00988632
0.140369
0.139491
0.048297
0.0115927
0.0104184
0.0242844
0.0274442
0.141085
0.0208282
0.0284746
0.108433
0.086151
0.00180098
0.0614188
0.0488217
0.0340688
0.0661783
0.0196105
0.141054
0.0725823
0.141059
0.0271909
0.0034595
0.00532608
0.00567574
0.145116
0.150863
0.0010822
0.153178
0.0248971
0.0386987
0.0299056
0.0305301
0.00557648
0.0386137
0.0567491
0.140537
0.140236
0.0154292
0.0108592
0.0479868
0.00395917
0.139782
0.139731
0.0158943
0.0301478
0.139906
0.00693099
0.0212423
0.0109801
0.0175061
0.0107554
0.0107707
0.00222469
0.143262
0.0384995
0.00868427
0.0593907
0.0647817
0.0657765
0.0261086
0.1309
0.00243176
0.144929
0.141824
0.1433
0.151589
0.155577
0.0799179
0.00113557
0.137071
0.127658
0.13784
0.0127871
0.00806701
0.186258
0.00250658
0.0123284
0.00202859
0.161235
0.00180654
0.146613
0.0715508
0.0603286
0.0140169
0.0578728
0.0201544
0.00397829
0.021487
0.0273342
0.10815
0.0174164
0.00413865
0.00252792
0.0162798
0.143594
0.117399
0.00281725
0.020176
0.00735107
0.0117916
0.0102237
0.0421162
0.011974
0.0474716
0.0199633
0.0214892
0.0227283
0.0204074
0.00314722
0.0393212
0.00749195
0.166295
0.0155767
0.121595
0.0128791
0.11621
0.159409
0.0922693
0.138667
0.139973
0.0752876
0.132988
0.0118907
0.00633648
0.143904
0.0123401
0.0835467
0.133021
0.287109
0.00139673
0.0168668
0.131605
0.056422
0.0266734
0.0236467
0.188009
0.0796673
0.0179173
0.0138544
0.046332
0.0607342
0.0962354
0.0541315
0.0423702
0.0231588
0.0285121
0.0614523
0.0501055
0.1303
0.0565065
0.130149
0.146882
0.133275
0.144681
0.137185
0.143861
0.00858072
0.306882
0.132353
0.180093
0.148524
0.403092
0.270593
0.22941
0.126774
0.217073
0.0317497
0.334242
0.140514
0.0254242
0.0782325
0.00664256
0.132059
0.00714569
0.133289
0.0496398
0.0435519
0.0699678
0.00798589
0.0412065
0.112246
0.143075
0.143655
0.111919
0.347797
0.413559
0.338788
0.399153
0.00576965
0.0137541
0.0155758
0.133704
0.014385
0.0418636
0.0510113
0.135775
0.0104243
0.0113022
0.0123674
0.00398589
0.00642542
0.0172478
0.0168156
0.00977365
0.0229194
0.0810062
0.0947235
0.0640196
0.0813253
0.00927289
0.00736598
0.00697626
0.0650896
0.0116845
0.0298815
0.00598119
0.29309
0.00305201
0.0300444
0.0800488
0.0344772
0.040119
0.13905
0.0142169
0.0242537
0.00394538
0.142149
0.140814
0.00553222
0.00417688
0.0306105
0.0116954
0.0209146
0.0767899
0.0438361
0.00214753
0.0083509
0.00215388
0.00611269
0.00591777
0.0170102
0.063689
0.00161681
0.0774728
0.137099
0.0359127
0.0872709
0.137413
0.0118762
0.00876546
0.0195484
0.116639
0.0113627
0.0178168
0.140067
0.0522969
0.00750575
0.00272225
0.00693926
0.0299712
0.0703952
0.0136988
0.0310558
0.0673137
0.022315
0.0194347
0.0178851
0.0159473
0.00444003
0.07707
0.0107231
0.162721
0.0388103
0.0142501
0.121961
0.00255183
0.00523218
0.00525838
0.00791865
0.0487888
0.185013
0.0174864
0.128496
0.125976
0.0911962
0.0249532
0.0158378
0.14098
0.00963332
0.0104748
0.141084
0.00237518
0.136453
0.137998
0.00953341
0.138659
0.0308658
0.137929
0.117531
0.122055
0.141371
0.142022
0.00500113
0.13558
0.24345
0.323325
0.129314
0.258772
0.115223
0.121233
0.0114108
0.0118652
0.00596828
0.005666
0.010852
0.103768
0.0944057
0.00914919
0.0331211
0.0859382
0.00484318
0.0146059
0.0296288
0.0969967
0.104541
0.0225797
0.154621
0.0261459
0.0324281
0.00884225
0.00642951
0.00664368
0.100078
0.0319373
0.0430182
0.00911311
0.0102613
0.00686181
0.17076
0.00306744
0.0930872
0.0950522
0.0319581
0.0507431
0.0775751
0.0869219
0.00501076
0.0458187
0.0680718
0.0403432
0.00881855
0.0054536
0.0247553
0.0754737
0.00585961
0.121109
0.151422
0.114042
0.177635
0.143036
0.131274
0.136765
0.198824
0.00388943
0.14119
0.0583645
0.00360039
0.0604926
0.00285213
0.0125403
0.0154278
0.0170101
0.0769655
0.0665379
0.115153
0.140735
0.0448836
0.0176067
0.101653
0.10361
0.0915538
0.123176
0.0176987
0.126779
0.118042
0.124303
0.00934881
0.140425
0.00467
0.140457
0.0939362
0.00530643
0.00440238
0.0501655
0.132077
0.00561433
0.131067
0.019925
0.0479299
0.0436559
0.1273
0.00265781
0.112223
0.038411
0.142004
0.00567307
0.111878
0.00811722
0.00449403
0.149705
0.0310197
0.140588
0.0282741
0.108871
0.001883
0.0310423
0.135649
0.0837017
0.00573141
0.143338
0.00816577
0.0938353
0.135555
0.00807953
0.0132055
0.022994
0.0204971
0.0208392
0.0582571
0.0601056
0.00838817
0.0128352
0.0529366
0.101153
0.00675272
0.143419
0.139895
0.00688375
0.121862
0.00390493
0.00253163
0.01496
0.00757835
0.0143208
0.0104538
0.0158228
0.00632012
0.00840247
0.0100059
0.0107277
0.00909317
0.124664
0.0116454
0.01081
0.134215
0.0540996
0.140293
0.135179
0.123564
0.123858
0.00645927
0.161254
0.0956448
0.219315
0.154546
0.0701088
0.00819772
0.0360022
0.0464967
0.00146226
0.00920934
0.0717655
0.00940832
0.109814
0.00731202
0.139758
0.0500705
0.0582179
0.0607677
0.14074
0.140812
0.0445162
0.0368541
0.00754684
0.0242918
0.0131551
0.139718
0.130936
0.028324
0.00955968
0.132126
0.161065
0.131404
0.00123162
0.00459525
0.0151253
0.152337
0.012754
0.00827576
0.160626
0.160586
0.159234
0.162064
0.0103744
0.00896625
0.0274979
0.0287515
0.0254179
0.0862247
0.122049
0.0312561
0.0898794
0.00864482
0.066844
0.144551
0.0124879
0.0295935
0.0337027
0.141354
0.146366
0.139891
0.00371963
0.140586
0.0839282
0.00261982
0.0183428
0.0321798
0.0107323
0.00694814
0.0109849
0.0053085
0.14104
0.0477187
0.0556989
0.0105827
0.0220305
0.0313775
0.0181659
0.0121942
0.0118833
0.0138709
0.0117788
0.0176638
0.0284703
0.00992755
0.00546263
0.0173503
0.0123418
0.158514
0.153793
0.143664
0.267293
0.0082386
0.008318
0.0107002
0.142063
0.0144162
0.0457972
0.00309171
0.207123
0.140457
0.140505
0.072372
0.0743347
0.0135637
0.151589
0.146614
0.147907
0.035278
0.139834
0.00280445
0.0105118
0.00607497
0.0588564
0.0836316
0.117955
0.16363
0.0721562
0.00203292
0.141167
0.104817
0.0124177
0.00271849
0.00530515
0.00300081
0.00362248
0.0024594
0.13472
0.019043
0.0197862
0.141583
0.133964
0.138841
0.0264235
0.0363278
0.0334471
0.118287
0.13998
0.0988289
0.108281
0.0812971
0.0449505
0.0101203
0.0125838
0.126312
0.0389518
0.0123061
0.00543276
0.129555
0.0175809
0.140931
0.0237879
0.0182266
0.00237783
0.0210812
0.0990531
0.114977
0.130695
0.101125
0.118679
0.0713181
0.0796199
0.0216518
0.0768796
0.0818064
0.11329
0.0158593
0.0319964
0.0359275
0.0178555
0.00346575
0.00287125
0.00288468
0.0874462
0.00127015
0.00851767
0.0335328
0.135956
0.0139212
0.0180019
0.0248013
0.0227236
0.0301169
0.029003
0.0680165
0.0168962
0.018714
0.0559944
0.0651831
0.21826
0.0918667
0.0920342
0.0162714
0.0023678
0.0016491
0.0333404
0.00470773
0.042833
0.00150468
0.0111354
0.00977417
0.0589045
0.00103289
0.0731469
0.190548
0.10826
0.139494
0.0218721
0.00120296
0.0106283
0.184408
0.167237
0.0258992
0.0721563
0.0245095
0.0182529
0.0143586
0.010314
0.104304
0.00500042
0.00423545
0.00785119
0.00720315
0.0260055
0.0262335
0.0229613
0.00593405
0.00259978
0.102257
0.00450383
0.129361
0.0231525
0.00772578
0.0185126
0.151759
0.00390473
0.0504923
0.00612479
0.0441413
0.135196
0.00173849
0.219517
0.258072
0.00354962
0.00202017
0.138925
0.141075
0.141424
0.141107
0.14046
0.00588516
0.135395
0.287809
0.222613
0.136121
0.0040139
0.0022449
0.134548
0.0989487
0.140075
0.140415
0.214937
0.184799
0.0054811
0.00638897
0.0030581
0.0116452
0.00407299
0.00460496
0.00550477
0.00266784
0.140896
0.140857
0.0139558
0.0141015
0.0293756
0.00329845
0.00576747
0.0104209
0.0281527
0.000996463
0.0739353
0.00268401
0.0147313
0.00746793
0.00810758
0.0556906
0.0205179
0.063018
0.0751666
0.0299004
0.00378587
0.00590741
0.00483702
0.0357928
0.00628472
0.00437176
0.0017294
0.0476594
0.133976
0.0511562
0.221931
0.00821445
0.00733109
0.0276407
0.0498649
0.00221712
0.123806
0.00504341
0.126736
0.118282
0.0028088
0.00545223
0.0141929
0.0486042
0.117612
0.0100219
0.013064
0.134353
0.136092
0.11287
0.00653631
0.0875568
0.00443953
0.0113478
0.0134531
0.193191
0.261301
0.00138357
0.0141041
0.0131278
0.0412404
0.0198449
0.00349416
0.0126198
0.107094
0.0133807
0.114423
0.0114999
0.0349662
0.00569056
0.0190443
0.00754275
0.137666
0.0479468
0.149563
0.137687
0.136993
0.00365319
0.0152635
0.0132805
0.071769
0.015625
0.0186297
0.087001
0.0760699
0.00837306
0.00801642
0.0125605
0.0197575
0.00421397
0.072296
0.00251064
0.00269269
0.0067031
0.00396326
0.137168
0.138388
0.141875
0.138964
0.141797
0.00413662
0.00731435
0.0118585
0.00475174
0.14383
0.00470331
0.156086
0.0049345
0.0103818
0.00129833
0.0121008
0.00593851
0.00132978
0.00504789
0.00264067
0.00157839
0.00596243
0.0857142
0.0746526
0.0666472
0.0483086
0.0472369
0.112398
0.112026
0.0126609
0.00673422
0.0138189
0.0424066
0.146222
0.0891479
0.0129594
0.00131908
0.0119144
0.145521
0.00512718
0.00477203
0.0691013
0.138422
0.00306855
0.00155411
0.00333744
0.0956765
0.00146602
0.139637
0.13495
0.0400093
0.145959
0.145666
0.00279476
0.000820877
0.0455078
0.020211
0.00266462
0.0258391
0.0065654
0.0703205
0.145643
0.00192784
0.046144
0.0341771
0.0854349
0.0320434
0.0150497
0.00789591
0.0146575
0.011165
0.00863369
0.009509
0.0227302
0.0373835
0.0409996
0.138441
0.0348865
0.0655378
0.0185842
0.139975
0.0234786
0.0132292
0.0221776
0.0167092
0.156177
0.0117934
0.013899
0.0311359
0.0420407
0.144702
0.0188753
0.0886824
0.0178425
0.0894283
0.0151254
0.140655
0.141094
0.140682
0.0518552
0.00905793
0.0190086
0.088057
0.0263923
0.00779344
0.0232565
0.0318693
0.00100854
0.0381831
0.0195097
0.0471093
0.0130318
0.0505392
0.0428919
0.345709
0.0147609
0.055547
0.0338959
0.00458644
0.0469255
0.0739499
0.0128897
0.0272968
0.0128418
0.0451387
0.014297
0.0298122
0.00685691
0.00396203
0.033792
0.014273
0.00906005
0.034077
0.0398051
0.020846
0.0399888
0.0547168
0.130624
0.0116302
0.00224454
0.00296774
0.157385
0.0106002
0.016364
0.0127112
0.0737383
0.128477
0.0108344
0.0247464
0.0100256
0.00485085
0.111221
0.0882978
0.140139
0.109672
0.0176235
0.0067989
0.0210501
0.00789669
0.123299
0.0161564
0.0929404
0.138401
0.0179721
0.139588
0.00661495
0.119845
0.0148136
0.0360283
0.0167966
0.00359046
0.00628927
0.0232445
0.00647481
0.028104
0.139387
0.0119649
0.00867147
0.00266675
0.0243819
0.095664
0.00266053
0.0460732
0.0442646
0.0147686
0.067793
0.00492516
0.00950786
0.00804378
0.0049444
0.0289274
0.0229711
0.116775
0.029321
0.0285894
0.0141743
0.0126684
0.00449879
0.02821
0.0099144
0.00671915
0.00190551
0.0372231
0.0149849
0.0077529
0.130006
0.136665
0.0129305
0.00651207
0.008329
0.0133448
0.108337
0.0146602
0.0138607
0.0147773
0.00123859
0.130879
0.00157022
0.077098
0.0052974
0.11605
0.00919551
0.0106239
0.00370077
0.00127086
0.107224
0.0943724
0.0320438
0.00363199
0.00851515
0.0059838
0.00159158
0.00475129
0.00269908
0.00218023
0.0061124
0.00356989
0.0048819
0.00539101
0.0994363
0.0919552
0.0010655
0.11964
0.142703
0.12022
0.0208403
0.0028481
0.00516681
0.0242438
0.0177891
0.123752
0.0195671
0.150503
0.0250844
0.0200537
0.0135272
0.0019903
0.0319367
0.0377519
0.0318025
0.0189055
0.0172422
0.0189672
0.00642605
0.00139677
0.0271317
0.0535713
0.0333078
0.0142483
0.0168459
0.00823926
0.0324637
0.139565
0.00134907
0.00192523
0.00360177
0.140033
0.0119885
0.0196132
0.00101416
0.00847332
0.00202221
0.0367915
0.00172579
0.017311
0.016829
0.0684738
0.0133302
0.00262554
0.00122616
0.0281383
0.0103882
0.0900635
0.0295073
0.0215751
0.0246538
0.00458084
0.0206503
0.020398
0.0323089
0.0364434
0.00132359
0.00361414
0.0169569
0.00222731
0.00403219
0.0422284
0.025508
0.00222735
0.0161031
0.0166877
0.137243
0.00770632
0.00938742
0.0304974
0.0113065
0.0112971
0.00471884
0.0376773
0.00426801
0.0445374
0.00821569
0.00817561
0.0246311
0.0230426
0.0319754
0.00109845
0.0571074
0.0262033
0.221776
0.0278465
0.0285401
0.218685
0.126394
0.0603675
0.00999443
0.00144212
0.104434
0.073858
0.0959276
0.00158872
0.016117
0.0164372
0.0149027
0.0738961
0.0466645
0.00191818
0.139218
0.0153751
0.00120439
0.00270993
0.0146997
0.0717534
0.0243576
0.0233997
0.0112132
0.128888
0.0118092
0.0225201
0.00994096
0.0201854
0.0108573
0.0235614
0.00607874
0.00257245
0.0203406
0.0576879
0.00914141
0.0191078
0.00701921
0.00187849
0.0172997
0.0268843
0.0238694
0.0104048
0.0167254
0.0351695
0.0329306
0.00870185
0.0362488
0.0532919
0.0226195
0.000951077
0.0155423
0.0304426
0.111421
0.0107204
0.10715
0.100098
0.0944979
0.277795
0.014269
0.273011
0.350319
0.00153759
0.0327846
0.0047459
0.0195213
0.00183955
0.00581754
0.00864005
0.140814
0.00767199
0.00997417
0.0054535
0.0502412
0.0253361
0.011974
0.00379589
0.0251514
0.0343008
0.255739
0.0545456
0.027409
0.0253478
0.0301307
0.0461692
0.0304602
0.0494478
0.116664
0.0467127
0.113636
0.0538689
0.00841414
0.0122014
0.0100708
0.0189003
0.0112404
0.012663
0.0397
0.0245486
0.135265
0.00250866
0.0822486
0.00847517
0.0060323
0.00870215
0.0585576
0.00942946
0.0830486
0.00167329
0.058356
0.0312433
0.0552633
0.0835764
0.0282968
0.0362799
0.0106186
0.0403406
0.0361372
0.0925971
0.013177
0.0148909
0.00648146
0.0098831
0.0155485
0.00974152
0.132203
0.00195885
0.00146582
0.00600083
0.0153853
0.0391088
0.00422193
0.0736782
0.00385248
0.0203144
0.00226989
0.00509456
0.0911649
0.0137693
0.00145192
0.0122488
0.00488226
0.0293081
0.010466
0.0210061
0.00485221
0.00219337
0.00104577
0.0145827
0.00590967
0.00101664
0.0013139
0.00900124
0.00829314
0.140495
0.140222
0.140436
0.025931
0.00210865
0.00612643
0.0116316
0.0030033
0.0335763
0.0311315
0.00607104
0.00928801
0.0564963
0.00971172
0.0109038
0.025246
0.0236071
0.137953
0.0144245
0.0503538
0.0231174
0.0295415
0.00195501
0.0380712
0.00484056
0.0023854
0.00187604
0.00348423
0.00246856
0.00182297
0.0183691
0.00411119
0.0317937
0.0287272
0.0256484
0.0276169
0.026723
0.0121504
0.0240955
0.00830726
0.0389808
0.00790471
0.116239
0.190401
0.00654906
0.119702
0.00112447
0.00526476
0.0245291
0.0428817
0.0096098
0.0387026
0.0324949
0.00583767
0.00767337
0.13008
0.0104314
0.0263397
0.0260813
0.0573727
0.00752328
0.0287777
0.00353034
0.0274539
0.00241363
0.141117
0.00492206
0.00256838
0.0167664
0.0100834
0.00172469
0.00547523
0.00717929
0.141123
0.141327
0.00274984
0.00270859
0.135965
0.0153748
0.122224
0.00394827
0.0103125
0.0125107
0.00184256
0.0371611
0.0130387
0.0202606
0.0151392
0.0129292
0.0153051
0.0145937
0.00446121
0.00340641
0.019543
0.0159628
0.0179005
0.0204
0.0123344
0.0139548
0.0156277
0.00263557
0.00381511
0.00448578
0.11951
0.117385
0.00331969
0.118318
0.0047388
0.00496193
0.00110142
0.0221386
0.0185862
0.0225662
0.0109316
0.0122235
0.0147312
0.0154307
0.00132227
0.0159849
0.00121963
0.00878321
0.0100999
0.140349
0.00166027
0.139551
0.00791978
0.00649389
0.00316564
0.0155616
0.00953072
0.00168125
0.0409658
0.0100077
0.00376402
0.0070282
0.00683092
0.00593076
0.0128184
0.00635896
0.0140123
0.00747501
0.0140621
0.0130031
0.0497375
0.0463825
0.124135
0.0162639
0.00320734
0.0299009
0.0340004
0.00857491
0.00459288
0.109543
0.11201
0.0146256
0.00208445
0.010715
0.0690024
0.00468707
0.00127974
0.0097616
0.00908705
0.00119504
0.00216018
0.0197382
0.00240281
0.0185516
0.0372861
0.00254647
0.00134741
0.0417813
0.00865072
0.0676238
0.0737603
0.0100304
0.0219837
0.0216878
0.0263124
0.034525
0.0310867
0.03672
0.103126
0.00849327
0.0227446
0.00997132
0.030357
0.00378429
0.0115572
0.00266984
0.00272729
0.0108667
0.00384243
0.000929176
0.00260341
0.101676
0.00599437
0.00193285
0.00632402
0.00104576
0.00488911
0.00379442
0.0923818
0.0012924
0.00132758
0.0113334
0.00926247
0.0192493
0.12438
0.00795486
0.123162
0.0809121
0.128695
0.0208393
0.0108764
0.00374475
0.135284
0.00103905
0.136497
0.0823112
0.0249823
0.0155794
0.00362515
0.00109729
0.00192842
0.0222563
0.00524528
0.00167
0.00370907
0.00188291
0.00407579
0.00115149
0.00430536
0.00579845
0.00465242
0.0115266
0.0122403
0.00525457
0.0110884
0.0124882
0.0717282
0.00201784
0.0373265
0.139242
0.0175772
0.0131235
0.138413
0.00174674
0.00398766
0.0067045
0.00310858
0.00931016
)
;

boundaryField
{
    frontAndBack
    {
        type            empty;
    }
    outlet
    {
        type            freestream;
        freestreamValue uniform 0.14;
        value           nonuniform List<scalar> 7(0.127921 0.133275 0.22941 0.217073 0.413559 0.399153 0.0920342);
    }
    walls
    {
        type            nutUSpaldingWallFunction;
        value           nonuniform List<scalar> 
28
(
0.0057511
0.00597071
0.00611895
0.00626027
0.00658859
0.00681979
0.00625609
0.00573104
0.00590325
0.0055981
0.00473849
0.00626292
0.0077246
0.00604984
0.00761699
0.0074061
0.00643496
0.00704852
0.00669519
0.0049303
0.00535446
0.00502201
0.0051039
0.00666973
0.00586112
0.00753474
0.00554511
0.00474957
)
;
    }
    inlet
    {
        type            freestream;
        freestreamValue uniform 0.14;
        value           uniform 0.14;
    }
    airfoil
    {
        type            nutUSpaldingWallFunction;
        value           nonuniform List<scalar> 
153
(
4.18711e-05
0.000157879
4.01797e-05
0.00011983
8.475e-05
3.73523e-05
3.93744e-05
0.000149416
8.46896e-05
0.000147996
3.23939e-05
8.40475e-05
4.08582e-05
0.000109409
7.03877e-05
0.000139331
0.000108331
0.000120575
7.38268e-05
5.84179e-05
7.4639e-05
8.69767e-05
9.72259e-05
4.82516e-05
4.47554e-05
8.34591e-05
6.80552e-05
5.36894e-05
9.16259e-05
3.86657e-05
4.77434e-05
3.49351e-05
0.000105522
6.92292e-05
9.67426e-05
0.000141426
5.325e-05
9.15823e-05
4.27779e-05
7.26209e-05
0.000121483
0.000106692
0.000107897
7.19958e-05
0.0001034
3.76876e-05
8.1234e-05
3.55354e-05
5.74816e-05
7.01356e-05
0.000105257
0.000115095
5.10057e-05
0.000138618
9.06743e-05
0.000129072
0.000146658
6.2574e-05
7.84241e-05
7.65596e-05
7.35867e-05
0.000131692
8.07703e-05
6.1178e-05
0.000151479
4.11163e-05
3.48659e-05
0.000108255
8.44326e-05
8.0566e-05
0.000140871
8.04254e-05
9.85771e-05
9.33197e-05
4.87522e-05
6.65473e-05
5.45752e-05
6.24492e-05
3.67594e-05
3.88508e-05
5.80707e-05
5.0774e-05
9.08996e-05
0.000109634
2.87643e-05
7.28274e-05
6.80742e-05
0.000119059
4.32067e-05
7.58853e-05
3.81008e-05
4.42621e-05
4.63367e-05
3.57948e-05
4.1052e-05
2.34913e-05
0.00012903
3.69602e-05
0.000116828
8.89813e-05
4.15622e-05
4.7728e-05
3.82789e-05
5.03654e-05
0.000149182
3.06134e-05
4.20323e-05
4.11818e-05
2.88385e-05
5.67267e-05
3.5224e-05
4.08292e-05
3.25954e-05
4.28104e-05
4.67012e-05
4.02449e-05
5.03139e-05
3.50377e-05
4.59202e-05
4.95262e-05
4.98978e-05
7.64631e-05
4.40382e-05
4.73226e-05
2.78302e-05
2.87114e-05
4.2031e-05
5.72479e-05
0.000125509
6.42617e-05
7.00663e-05
2.52498e-05
6.18812e-05
7.75902e-05
4.96863e-05
5.77535e-05
2.67695e-05
4.32791e-05
4.1822e-05
5.10455e-05
4.20234e-05
3.87017e-05
6.86805e-05
4.34263e-05
3.20736e-05
7.65447e-05
3.0138e-05
3.10495e-05
3.31569e-05
3.26789e-05
3.95405e-05
5.82663e-05
3.76415e-05
)
;
    }
}


// ************************************************************************* //
