/*--------------------------------*- C++ -*----------------------------------*\
| =========                 |                                                 |
| \\      /  F ield         | OpenFOAM: The Open Source CFD Toolbox           |
|  \\    /   O peration     | Version:  2206                                  |
|   \\  /    A nd           | Website:  www.openfoam.com                      |
|    \\/     M anipulation  |                                                 |
\*---------------------------------------------------------------------------*/
FoamFile
{
    version     2.0;
    format      ascii;
    arch        "LSB;label=32;scalar=64";
    class       volScalarField;
    location    "227";
    object      nuTilda;
}
// * * * * * * * * * * * * * * * * * * * * * * * * * * * * * * * * * * * * * //

dimensions      [0 2 -1 0 0 0 0];

internalField   nonuniform List<scalar> 
2283
(
0.174344
0.230524
0.0035765
0.00438115
0.00723152
0.00818075
0.129687
0.132261
0.00147926
0.00479781
0.00356778
0.0972374
0.00303141
0.0601654
0.0887784
0.12124
0.12035
0.0443989
0.182685
0.00513857
0.0130113
0.011598
0.140029
0.139913
0.161802
0.211273
0.135228
0.0295367
0.135206
0.00215326
0.0012908
0.130957
0.126543
0.140708
0.140203
0.126866
0.120875
0.140799
0.140622
0.296512
0.225618
0.0514917
0.00793935
0.00894505
0.0326103
0.0263037
0.0100506
0.0238099
0.0192194
0.137924
0.0128502
0.133016
0.00486876
0.0238588
0.100599
0.0131669
0.0393864
0.0583202
0.00235926
0.102959
0.0512532
0.0742379
0.0133127
0.0462942
0.00106379
0.161977
0.217776
0.0534955
0.0061702
0.0099367
0.0508907
0.00470075
0.0961077
0.192041
0.0730955
0.00641691
0.141522
0.139587
0.140536
0.141052
0.0775171
0.101623
0.0235003
0.00407985
0.00136645
0.00392454
0.00986726
0.0313041
0.0111952
0.0127627
0.04254
0.00526962
0.0268389
0.0803513
0.0608706
0.14168
0.105388
0.00703853
0.145085
0.00503081
0.0960874
0.105987
0.292044
0.0116704
0.00231689
0.0030266
0.353835
0.15372
0.00359636
0.00247496
0.144261
0.132943
0.132792
0.066808
0.0536113
0.00312174
0.00626073
0.155315
0.00801554
0.0386773
0.0787506
0.0123436
0.136901
0.136549
0.00118349
0.00922648
0.0421268
0.0118724
0.0107673
0.0138673
0.0308146
0.00364831
0.00251595
0.0971531
0.0367277
0.0224023
0.113596
0.112993
0.00817819
0.00706411
0.0472945
0.0097149
0.0144438
0.042088
0.0598144
0.00200738
0.0505305
0.14043
0.140063
0.0467419
0.14999
0.0675466
0.105442
0.0968421
0.0100128
0.00947501
0.00506211
0.00437238
0.0358039
0.00775345
0.0519591
0.193879
0.0479916
0.0156319
0.123287
0.0236532
0.128156
0.00926018
0.13275
0.0455685
0.00245743
0.00143316
0.0027829
0.00718577
0.120768
0.00552478
0.0344891
0.0294913
0.0060696
0.00562992
0.0240995
0.0138939
0.00511713
0.0027503
0.0220609
0.017648
0.00186279
0.00771322
0.0156709
0.00357572
0.00367024
0.138591
0.11349
0.054372
0.0281538
0.0341736
0.0554223
0.0611644
0.0192134
0.0180494
0.043398
0.0479536
0.00352853
0.0200194
0.00213742
0.0151842
0.0101238
0.0196647
0.0612787
0.0210594
0.139453
0.140378
0.00191467
0.0351992
0.0141963
0.039316
0.00670547
0.0381029
0.0236473
0.0015965
0.00203465
0.0831745
0.0024041
0.0127902
0.00668739
0.00189672
0.00583976
0.00918862
0.00470264
0.128875
0.00812279
0.00253552
0.00336628
0.0231927
0.0270565
0.0378905
0.00220143
0.0981506
0.00208657
0.128178
0.0789652
0.0332528
0.00146946
0.124471
0.00948782
0.10367
0.0104692
0.0112094
0.0798174
0.124574
0.166764
0.00239673
0.00212856
0.0718656
0.00135795
0.016062
0.00203117
0.0820083
0.100489
0.0128747
0.0116007
0.0867794
0.0169209
0.00209446
0.00230537
0.0204343
0.0697223
0.0716248
0.00845412
0.0769463
0.0826302
0.075136
0.0744261
0.0126269
0.0545772
0.0190325
0.00670309
0.0431668
0.0409108
0.0110625
0.0401128
0.0310162
0.0134938
0.0014694
0.010493
0.0900572
0.0541992
0.0131278
0.0124154
0.0252165
0.0265682
0.105625
0.0491418
0.00644071
0.00209934
0.00354509
0.00249955
0.00873623
0.0117706
0.00998976
0.00575444
0.0122128
0.0120657
0.068757
0.0950243
0.0511204
0.0743463
0.0525935
0.0222411
0.0215234
0.036454
0.160365
0.0259463
0.0794555
0.0621157
0.0235619
0.0268111
0.059957
0.151974
0.0195552
0.0191807
0.0176736
0.193505
0.0155833
0.0175663
0.0149671
0.0229389
0.0257224
0.066727
0.00121143
0.0503474
0.0230401
0.0370943
0.0340727
0.142204
0.140523
0.0310288
0.0144053
0.0772353
0.0197925
0.114406
0.0699996
0.00344568
0.00166737
0.0538009
0.0190108
0.00182833
0.0207402
0.001041
0.00910054
0.00984638
0.00658583
0.0498756
0.106159
0.140585
0.00770467
0.0947988
0.0164451
0.0153346
0.0202442
0.0225115
0.00662516
0.00685793
0.00783701
0.128294
0.020801
0.0493125
0.00990058
0.00696655
0.00475764
0.0033001
0.0200563
0.129937
0.0242499
0.0217432
0.137744
0.126624
0.007221
0.00720818
0.00822509
0.00611257
0.0988518
0.143608
0.178044
0.1596
0.0256866
0.109102
0.0401286
0.045794
0.0264193
0.029647
0.0256494
0.0595362
0.0184664
0.0190808
0.0166114
0.021049
0.0251709
0.0122718
0.00429872
0.00274712
0.0363199
0.040859
0.033742
0.00356336
0.0340928
0.0608087
0.00964634
0.00801907
0.00647448
0.00401186
0.0243917
0.0331503
0.0942515
0.0290118
0.0254541
0.144196
0.0355733
0.0389348
0.00311361
0.037302
0.0178554
0.121301
0.209304
0.00616442
0.139962
0.140296
0.0909826
0.0417603
0.044815
0.112334
0.0972406
0.0889878
0.0492126
0.132779
0.140467
0.140626
0.140496
0.00950816
0.0254551
0.117491
0.140722
0.139342
0.00671177
0.127674
0.0915943
0.0400363
0.00304875
0.00149632
0.0646624
0.00149532
0.035907
0.104331
0.0354937
0.0823666
0.0345389
0.00780956
0.0258618
0.118418
0.133772
0.160972
0.0274701
0.00296046
0.142085
0.0415385
0.0296279
0.00454565
0.117177
0.130372
0.144535
0.135822
0.00176287
0.0170503
0.121861
0.119931
0.130423
0.125046
0.111974
0.109476
0.00258646
0.00354231
0.214139
0.193327
0.243426
0.141352
0.13716
0.00412432
0.0210629
0.268372
0.0137784
0.139744
0.138045
0.145931
0.149595
0.121717
0.111122
0.0131025
0.139872
0.0156617
0.107391
0.0185053
0.0637485
0.140766
0.140788
0.014668
0.0582116
0.0495148
0.232546
0.150317
0.183616
0.124563
0.0352021
0.145591
0.144566
0.146649
0.132935
0.145975
0.0466206
0.0575839
0.0595145
0.0709247
0.0620763
0.140512
0.140796
0.136759
0.0588935
0.126861
0.0620833
0.135272
0.139483
0.152461
0.123078
0.00126212
0.113797
0.117778
0.143262
0.139776
0.132865
0.146264
0.131457
0.0357375
0.0400692
0.0900689
0.0464057
0.0936974
0.0224439
0.0978879
0.141382
0.16324
0.155318
0.148523
0.141457
0.227753
0.195648
0.155955
0.164453
0.154642
0.250186
0.217807
0.141927
0.0900214
0.00934106
0.0104391
0.00769112
0.00943241
0.00765694
0.0090141
0.305002
0.164815
0.237385
0.176161
0.192262
0.102466
0.0325268
0.141312
0.00439936
0.123019
0.147997
0.0545653
0.323292
0.248429
0.124482
0.152843
0.0318657
0.0464559
0.310493
0.0728193
0.282084
0.40967
0.313163
0.0137883
0.157982
0.131159
0.0110617
0.0808796
0.178952
0.126548
0.263723
0.256457
0.424545
0.32958
0.129449
0.130541
0.030033
0.157716
0.223179
0.00505967
0.322067
0.317898
0.12731
0.00345711
0.0257871
0.00200975
0.00272383
0.00529748
0.139354
0.140926
0.140008
0.129824
0.127921
0.127189
0.14793
0.112756
0.155065
0.134638
0.14861
0.0408902
0.257079
0.371197
0.140779
0.0795384
0.0408586
0.109916
0.376665
0.112793
0.0117201
0.139849
0.139993
0.074851
0.0203564
0.00390714
0.203417
0.0358452
0.0348875
0.016955
0.110311
0.133511
0.134037
0.113992
0.0145915
0.144104
0.139801
0.0277859
0.140116
0.141468
0.0128572
0.139946
0.141113
0.0321699
0.0364127
0.14055
0.140566
0.027231
0.0363824
0.143018
0.0110188
0.0630662
0.140459
0.294744
0.267604
0.140149
0.085813
0.0480226
0.00959003
0.0423878
0.0547534
0.0109392
0.075963
0.0223774
0.00187467
0.0122472
0.0794164
0.00353682
0.0054911
0.00540632
0.00294247
0.00405443
0.16999
0.293806
0.312194
0.244051
0.145182
0.00330246
0.0161038
0.0193403
0.0947706
0.443803
0.0165117
0.0122289
0.0925922
0.0995235
0.0179553
0.00821148
0.0430676
0.015361
0.0128048
0.0593346
0.0133368
0.139933
0.00953723
0.227482
0.296991
0.00763498
0.00910161
0.0143701
0.00696455
0.0185185
0.140478
0.00988633
0.140369
0.139491
0.048297
0.0115927
0.0104184
0.0242844
0.0274442
0.141085
0.0208282
0.0284746
0.108433
0.086151
0.00180135
0.0614188
0.0488217
0.0340688
0.0661783
0.0196105
0.141054
0.0725823
0.141059
0.0271909
0.0034596
0.00532612
0.00567578
0.145116
0.150863
0.00108323
0.153178
0.0248971
0.0386987
0.0299056
0.0305301
0.00557651
0.0386137
0.0567491
0.140537
0.140236
0.0154292
0.0108592
0.0479868
0.00395924
0.139782
0.139731
0.0158943
0.0301478
0.139906
0.00693101
0.0212423
0.0109801
0.0175061
0.0107555
0.0107707
0.00222493
0.143262
0.0384995
0.00868428
0.0593907
0.0647817
0.0657765
0.0261086
0.1309
0.00243197
0.144929
0.141824
0.1433
0.151589
0.155577
0.0799179
0.0011365
0.137071
0.127658
0.13784
0.0127871
0.00806703
0.186258
0.00250677
0.0123284
0.00202888
0.161235
0.00180691
0.146613
0.0715508
0.0603286
0.0140169
0.0578728
0.0201544
0.00397836
0.021487
0.0273342
0.10815
0.0174164
0.00413872
0.00252811
0.0162798
0.143594
0.117399
0.0028174
0.020176
0.00735109
0.0117916
0.0102237
0.0421162
0.011974
0.0474716
0.0199633
0.0214892
0.0227283
0.0204074
0.00314734
0.0393212
0.00749197
0.166295
0.0155767
0.121595
0.0128792
0.11621
0.159409
0.0922693
0.138667
0.139973
0.0752876
0.132988
0.0118907
0.00633651
0.143904
0.0123401
0.0835467
0.133021
0.287109
0.00139735
0.0168668
0.131605
0.056422
0.0266734
0.0236467
0.188009
0.0796673
0.0179173
0.0138544
0.046332
0.0607342
0.0962354
0.0541315
0.0423702
0.0231588
0.0285121
0.0614523
0.0501055
0.1303
0.0565065
0.130149
0.146882
0.133275
0.144681
0.137185
0.143861
0.00858073
0.306882
0.132353
0.180093
0.148524
0.403092
0.270593
0.22941
0.126774
0.217073
0.0317497
0.334242
0.140514
0.0254242
0.0782325
0.00664259
0.132059
0.00714571
0.133289
0.0496398
0.0435519
0.0699678
0.00798591
0.0412065
0.112246
0.143075
0.143655
0.111919
0.347797
0.413559
0.338788
0.399153
0.00576969
0.0137541
0.0155758
0.133704
0.014385
0.0418636
0.0510113
0.135775
0.0104243
0.0113022
0.0123674
0.00398597
0.00642545
0.0172478
0.0168156
0.00977367
0.0229194
0.0810062
0.0947235
0.0640196
0.0813253
0.00927291
0.007366
0.00697628
0.0650896
0.0116845
0.0298815
0.00598122
0.29309
0.00305214
0.0300444
0.0800488
0.0344772
0.040119
0.13905
0.0142169
0.0242537
0.00394546
0.142149
0.140814
0.00553226
0.00417695
0.0306105
0.0116954
0.0209146
0.0767899
0.0438361
0.00214779
0.00835092
0.00215414
0.00611272
0.0059178
0.0170102
0.063689
0.00161727
0.0774728
0.137099
0.0359127
0.0872709
0.137413
0.0118762
0.00876548
0.0195484
0.116639
0.0113627
0.0178168
0.140067
0.0522969
0.00750577
0.00272241
0.00693928
0.0299712
0.0703952
0.0136988
0.0310558
0.0673137
0.022315
0.0194347
0.0178851
0.0159473
0.00444009
0.07707
0.0107231
0.162721
0.0388103
0.0142501
0.121961
0.00255202
0.00523222
0.00525842
0.00791867
0.0487888
0.185013
0.0174864
0.128496
0.125976
0.0911962
0.0249532
0.0158378
0.14098
0.00963333
0.0104748
0.141084
0.0023754
0.136453
0.137998
0.00953342
0.138659
0.0308658
0.137929
0.117531
0.122055
0.141371
0.142022
0.00500118
0.13558
0.24345
0.323325
0.129314
0.258772
0.115223
0.121233
0.0114109
0.0118652
0.00596832
0.00566603
0.010852
0.103768
0.0944057
0.0091492
0.0331211
0.0859382
0.00484324
0.0146059
0.0296288
0.0969967
0.104541
0.0225797
0.154621
0.0261459
0.0324281
0.00884226
0.00642954
0.00664371
0.100078
0.0319373
0.0430182
0.00911313
0.0102613
0.00686184
0.17076
0.00306757
0.0930872
0.0950522
0.0319581
0.0507432
0.0775751
0.0869219
0.0050108
0.0458187
0.0680718
0.0403432
0.00881857
0.00545364
0.0247553
0.0754737
0.00585964
0.121109
0.151422
0.114042
0.177635
0.143036
0.131274
0.136765
0.198824
0.00388951
0.14119
0.0583645
0.00360048
0.0604926
0.00285227
0.0125403
0.0154278
0.0170101
0.0769655
0.0665379
0.115153
0.140735
0.0448836
0.0176067
0.101653
0.10361
0.0915538
0.123176
0.0176987
0.126779
0.118042
0.124303
0.00934882
0.140425
0.00467006
0.140457
0.0939362
0.00530647
0.00440244
0.0501655
0.132077
0.00561437
0.131067
0.019925
0.0479299
0.0436559
0.1273
0.00265798
0.112223
0.038411
0.142004
0.0056731
0.111878
0.00811724
0.00449409
0.149705
0.0310197
0.140588
0.0282741
0.108871
0.00188334
0.0310423
0.135649
0.0837017
0.00573144
0.143338
0.00816579
0.0938353
0.135555
0.00807955
0.0132055
0.022994
0.0204971
0.0208392
0.0582571
0.0601056
0.00838818
0.0128352
0.0529366
0.101153
0.00675274
0.143419
0.139895
0.00688377
0.121862
0.00390501
0.00253181
0.01496
0.00757837
0.0143208
0.0104538
0.0158228
0.00632015
0.00840248
0.0100059
0.0107277
0.00909318
0.124664
0.0116454
0.01081
0.134215
0.0540996
0.140293
0.135179
0.123564
0.123858
0.0064593
0.161254
0.0956448
0.219315
0.154546
0.0701088
0.00819774
0.0360022
0.0464967
0.00146282
0.00920936
0.0717655
0.00940834
0.109814
0.00731204
0.139758
0.0500705
0.0582179
0.0607677
0.14074
0.140812
0.0445162
0.0368541
0.00754687
0.0242918
0.0131551
0.139718
0.130936
0.028324
0.0095597
0.132126
0.161065
0.131404
0.00123242
0.0045953
0.0151253
0.152337
0.012754
0.00827578
0.160626
0.160586
0.159234
0.162064
0.0103744
0.00896627
0.0274979
0.0287515
0.0254179
0.0862247
0.122049
0.0312561
0.0898794
0.00864483
0.066844
0.144551
0.0124879
0.0295935
0.0337027
0.141354
0.146366
0.139891
0.00371972
0.140586
0.0839282
0.00261999
0.0183428
0.0321798
0.0107323
0.00694816
0.0109849
0.00530854
0.14104
0.0477187
0.0556989
0.0105828
0.0220305
0.0313775
0.0181659
0.0121942
0.0118833
0.0138709
0.0117788
0.0176638
0.0284703
0.00992756
0.00546267
0.0173503
0.0123418
0.158514
0.153793
0.143664
0.267293
0.00823862
0.00831802
0.0107002
0.142063
0.0144162
0.0457972
0.00309183
0.207123
0.140457
0.140505
0.072372
0.0743347
0.0135637
0.151589
0.146614
0.147907
0.035278
0.139834
0.0028046
0.0105118
0.006075
0.0588564
0.0836316
0.117955
0.16363
0.0721562
0.00203321
0.141167
0.104817
0.0124177
0.00271865
0.00530519
0.00300094
0.00362258
0.0024596
0.13472
0.019043
0.0197862
0.141583
0.133964
0.138841
0.0264235
0.0363278
0.0334471
0.118287
0.13998
0.0988289
0.108281
0.0812971
0.0449505
0.0101203
0.0125838
0.126312
0.0389518
0.0123061
0.0054328
0.129555
0.0175809
0.140931
0.0237879
0.0182266
0.00237804
0.0210812
0.0990531
0.114977
0.130695
0.101125
0.118679
0.0713181
0.0796199
0.0216518
0.0768796
0.0818064
0.11329
0.0158593
0.0319964
0.0359275
0.0178555
0.00346586
0.00287139
0.00288483
0.0874462
0.0012709
0.00851769
0.0335328
0.135956
0.0139212
0.0180019
0.0248013
0.0227236
0.0301169
0.029003
0.0680165
0.0168962
0.018714
0.0559944
0.0651831
0.21826
0.0918667
0.0920342
0.0162714
0.00236801
0.00164954
0.0333404
0.00470778
0.042833
0.00150521
0.0111354
0.00977419
0.0589045
0.00103402
0.0731469
0.190548
0.10826
0.139494
0.0218721
0.0012038
0.0106283
0.184408
0.167237
0.0258992
0.0721563
0.0245095
0.0182529
0.0143586
0.010314
0.104304
0.00500047
0.00423551
0.00785121
0.00720317
0.0260055
0.0262335
0.0229613
0.00593409
0.00259996
0.102257
0.00450389
0.129361
0.0231525
0.0077258
0.0185126
0.151759
0.00390481
0.0504923
0.00612482
0.0441413
0.135196
0.00173889
0.219517
0.258072
0.00354972
0.00202047
0.138925
0.141075
0.141424
0.141107
0.14046
0.00588519
0.135395
0.287809
0.222613
0.136121
0.00401398
0.00224514
0.134548
0.0989487
0.140075
0.140415
0.214937
0.184799
0.00548114
0.006389
0.00305823
0.0116452
0.00407306
0.00460501
0.00550481
0.00266801
0.140896
0.140857
0.0139558
0.0141015
0.0293756
0.00329856
0.00576751
0.0104209
0.0281527
0.000997675
0.0739353
0.00268418
0.0147313
0.00746795
0.00810759
0.0556906
0.0205179
0.063018
0.0751666
0.0299004
0.00378595
0.00590744
0.00483707
0.0357928
0.00628475
0.00437182
0.0017298
0.0476594
0.133976
0.0511562
0.221931
0.00821447
0.00733111
0.0276407
0.0498649
0.00221737
0.123806
0.00504346
0.126736
0.118282
0.00280895
0.00545227
0.0141929
0.0486042
0.117612
0.0100219
0.013064
0.134353
0.136092
0.11287
0.00653634
0.0875568
0.0044396
0.0113478
0.0134531
0.193191
0.261301
0.0013842
0.0141041
0.0131278
0.0412404
0.0198449
0.00349426
0.0126198
0.107094
0.0133807
0.114423
0.0114999
0.0349662
0.0056906
0.0190443
0.00754277
0.137666
0.0479468
0.149563
0.137687
0.136993
0.00365328
0.0152635
0.0132805
0.071769
0.015625
0.0186297
0.087001
0.0760699
0.00837308
0.00801644
0.0125605
0.0197575
0.00421404
0.072296
0.00251083
0.00269286
0.00670312
0.00396333
0.137168
0.138388
0.141875
0.138964
0.141797
0.00413669
0.00731437
0.0118585
0.0047518
0.14383
0.00470336
0.156086
0.00493455
0.0103818
0.00129905
0.0121008
0.00593854
0.00133046
0.00504794
0.00264084
0.00157888
0.00596246
0.0857142
0.0746526
0.0666472
0.0483086
0.0472369
0.112398
0.112026
0.0126609
0.00673424
0.0138189
0.0424066
0.146222
0.0891479
0.0129594
0.00131978
0.0119144
0.145521
0.00512723
0.00477208
0.0691013
0.138422
0.00306867
0.00155461
0.00333755
0.0956765
0.00146658
0.139637
0.13495
0.0400093
0.145959
0.145666
0.00279492
0.000822658
0.0455078
0.020211
0.00266479
0.0258391
0.00656543
0.0703205
0.145643
0.00192817
0.046144
0.0341771
0.0854349
0.0320434
0.0150497
0.00789593
0.0146575
0.011165
0.00863371
0.00950901
0.0227302
0.0373835
0.0409996
0.138441
0.0348865
0.0655378
0.0185842
0.139975
0.0234786
0.0132292
0.0221776
0.0167092
0.156177
0.0117934
0.013899
0.0311359
0.0420407
0.144702
0.0188753
0.0886824
0.0178425
0.0894283
0.0151254
0.140655
0.141094
0.140682
0.0518552
0.00905795
0.0190086
0.088057
0.0263923
0.00779346
0.0232565
0.0318693
0.00100972
0.0381831
0.0195097
0.0471093
0.0130318
0.0505392
0.0428919
0.345709
0.014761
0.055547
0.0338959
0.0045865
0.0469255
0.0739499
0.0128897
0.0272968
0.0128418
0.0451387
0.014297
0.0298122
0.00685693
0.00396211
0.033792
0.014273
0.00906006
0.034077
0.0398051
0.020846
0.0399888
0.0547168
0.130624
0.0116302
0.00224478
0.00296788
0.157385
0.0106003
0.016364
0.0127112
0.0737383
0.128477
0.0108344
0.0247464
0.0100256
0.0048509
0.111221
0.0882978
0.140139
0.109672
0.0176235
0.00679893
0.0210501
0.00789671
0.123299
0.0161564
0.0929404
0.138401
0.0179721
0.139588
0.00661498
0.119845
0.0148136
0.0360283
0.0167966
0.00359055
0.0062893
0.0232445
0.00647484
0.028104
0.139387
0.0119649
0.00867149
0.00266692
0.0243819
0.095664
0.0026607
0.0460732
0.0442646
0.0147686
0.067793
0.00492521
0.00950787
0.0080438
0.00494445
0.0289274
0.0229711
0.116775
0.029321
0.0285894
0.0141744
0.0126684
0.00449885
0.02821
0.00991442
0.00671917
0.00190585
0.0372231
0.0149849
0.00775292
0.130006
0.136665
0.0129306
0.0065121
0.00832902
0.0133448
0.108337
0.0146602
0.0138607
0.0147773
0.00123938
0.130879
0.00157071
0.077098
0.00529744
0.11605
0.00919552
0.0106239
0.00370086
0.0012716
0.107224
0.0943724
0.0320438
0.00363208
0.00851517
0.00598383
0.00159205
0.00475134
0.00269925
0.00218048
0.00611243
0.00356998
0.00488196
0.00539105
0.0994363
0.0919552
0.00106657
0.11964
0.142703
0.12022
0.0208403
0.00284825
0.00516686
0.0242438
0.0177891
0.123752
0.0195671
0.150503
0.0250844
0.0200537
0.0135272
0.0019906
0.0319367
0.0377519
0.0318025
0.0189055
0.0172422
0.0189672
0.00642608
0.00139739
0.0271317
0.0535713
0.0333078
0.0142483
0.0168459
0.00823928
0.0324637
0.139565
0.00134973
0.00192555
0.00360186
0.140033
0.0119885
0.0196133
0.00101533
0.00847334
0.0020225
0.0367915
0.00172619
0.017311
0.016829
0.0684738
0.0133302
0.00262572
0.00122696
0.0281383
0.0103882
0.0900635
0.0295073
0.0215751
0.0246538
0.0045809
0.0206503
0.020398
0.0323089
0.0364434
0.00132428
0.00361423
0.0169569
0.00222755
0.00403227
0.0422284
0.025508
0.00222759
0.0161031
0.0166877
0.137243
0.00770634
0.00938743
0.0304974
0.0113065
0.0112971
0.0047189
0.0376773
0.00426808
0.0445374
0.00821571
0.00817563
0.0246311
0.0230426
0.0319754
0.00109945
0.0571074
0.0262033
0.221776
0.0278465
0.0285401
0.218685
0.126394
0.0603675
0.00999444
0.0014427
0.104434
0.073858
0.0959276
0.0015892
0.016117
0.0164372
0.0149027
0.0738961
0.0466645
0.00191851
0.139218
0.0153751
0.00120522
0.00271009
0.0146997
0.0717534
0.0243576
0.0233997
0.0112133
0.128888
0.0118092
0.0225201
0.00994098
0.0201854
0.0108573
0.0235614
0.00607877
0.00257263
0.0203406
0.0576879
0.00914142
0.0191078
0.00701924
0.00187883
0.0172997
0.0268843
0.0238695
0.0104048
0.0167254
0.0351695
0.0329306
0.00870187
0.0362488
0.0532919
0.0226195
0.000952407
0.0155423
0.0304426
0.111421
0.0107204
0.10715
0.100098
0.0944979
0.277795
0.014269
0.273011
0.350319
0.0015381
0.0327846
0.00474595
0.0195213
0.0018399
0.00581758
0.00864007
0.140814
0.00767201
0.00997419
0.00545354
0.0502412
0.0253361
0.011974
0.00379598
0.0251514
0.0343008
0.255739
0.0545456
0.027409
0.0253478
0.0301307
0.0461692
0.0304602
0.0494478
0.116664
0.0467127
0.113636
0.0538689
0.00841416
0.0122014
0.0100708
0.0189003
0.0112404
0.012663
0.0397
0.0245486
0.135265
0.00250885
0.0822486
0.00847518
0.00603233
0.00870217
0.0585576
0.00942947
0.0830486
0.00167372
0.058356
0.0312433
0.0552633
0.0835764
0.0282968
0.0362799
0.0106186
0.0403406
0.0361372
0.0925971
0.013177
0.0148909
0.00648148
0.00988312
0.0155486
0.00974153
0.132203
0.00195916
0.00146639
0.00600087
0.0153853
0.0391088
0.004222
0.0736782
0.00385256
0.0203144
0.00227012
0.0050946
0.0911649
0.0137693
0.0014525
0.0122488
0.00488231
0.0293081
0.010466
0.0210061
0.00485227
0.00219362
0.00104687
0.0145827
0.0059097
0.0010178
0.0013146
0.00900125
0.00829316
0.140495
0.140222
0.140436
0.025931
0.00210892
0.00612646
0.0116316
0.00300344
0.0335763
0.0311315
0.00607107
0.00928802
0.0564963
0.00971174
0.0109038
0.025246
0.0236071
0.137953
0.0144245
0.0503538
0.0231174
0.0295415
0.00195533
0.0380712
0.00484061
0.00238561
0.00187639
0.00348433
0.00246875
0.00182334
0.0183691
0.00411127
0.0317937
0.0287272
0.0256484
0.0276169
0.026723
0.0121504
0.0240955
0.00830728
0.0389808
0.00790473
0.116239
0.190401
0.00654909
0.119702
0.00112542
0.00526481
0.0245291
0.0428817
0.00960981
0.0387026
0.0324949
0.0058377
0.00767339
0.13008
0.0104314
0.0263397
0.0260813
0.0573727
0.0075233
0.0287777
0.00353044
0.0274539
0.00241384
0.141117
0.00492211
0.00256856
0.0167664
0.0100834
0.00172509
0.00547527
0.00717931
0.141123
0.141327
0.00275
0.00270875
0.135965
0.0153748
0.122224
0.00394835
0.0103125
0.0125107
0.00184292
0.0371611
0.0130387
0.0202606
0.0151392
0.0129292
0.0153051
0.0145937
0.00446127
0.00340651
0.019543
0.0159628
0.0179005
0.0204
0.0123344
0.0139548
0.0156277
0.00263574
0.00381519
0.00448584
0.11951
0.117385
0.0033198
0.118318
0.00473885
0.00496198
0.00110241
0.0221386
0.0185862
0.0225662
0.0109316
0.0122235
0.0147312
0.0154307
0.00132296
0.0159849
0.00122044
0.00878323
0.0100999
0.140349
0.00166071
0.139551
0.0079198
0.00649392
0.00316576
0.0155616
0.00953074
0.00168167
0.0409658
0.0100077
0.0037641
0.00702822
0.00683095
0.0059308
0.0128184
0.00635899
0.0140123
0.00747503
0.0140621
0.0130031
0.0497375
0.0463825
0.124135
0.0162639
0.00320746
0.0299009
0.0340004
0.00857493
0.00459294
0.109543
0.11201
0.0146256
0.00208473
0.010715
0.0690024
0.00468712
0.00128048
0.00976161
0.00908706
0.00119588
0.00216044
0.0197382
0.00240302
0.0185516
0.0372861
0.00254666
0.00134807
0.0417813
0.00865074
0.0676238
0.0737603
0.0100304
0.0219837
0.0216878
0.0263124
0.034525
0.0310867
0.03672
0.103126
0.00849329
0.0227446
0.00997134
0.030357
0.00378438
0.0115572
0.00267001
0.00272745
0.0108667
0.00384251
0.000930569
0.00260358
0.101676
0.00599441
0.00193318
0.00632405
0.00104687
0.00488916
0.0037945
0.0923818
0.00129313
0.00132827
0.0113334
0.00926249
0.0192493
0.12438
0.00795488
0.123162
0.0809121
0.128695
0.0208393
0.0108764
0.00374484
0.135284
0.00104016
0.136497
0.0823112
0.0249823
0.0155794
0.00362525
0.00109829
0.00192875
0.0222563
0.00524532
0.00167044
0.00370916
0.00188325
0.00407587
0.0011524
0.00430543
0.00579849
0.00465247
0.0115266
0.0122403
0.00525462
0.0110884
0.0124882
0.0717282
0.00201814
0.0373265
0.139242
0.0175772
0.0131235
0.138413
0.00174714
0.00398773
0.00670453
0.0031087
0.00931017
)
;

boundaryField
{
    frontAndBack
    {
        type            empty;
    }
    outlet
    {
        type            freestream;
        freestreamValue uniform 0.14;
        value           nonuniform List<scalar> 7(0.127921 0.133275 0.22941 0.217073 0.413559 0.399153 0.0920342);
    }
    walls
    {
        type            fixedValue;
        value           uniform 0;
    }
    inlet
    {
        type            freestream;
        freestreamValue uniform 0.14;
        value           uniform 0.14;
    }
    airfoil
    {
        type            fixedValue;
        value           uniform 0;
    }
}


// ************************************************************************* //
