/*--------------------------------*- C++ -*----------------------------------*\
| =========                 |                                                 |
| \\      /  F ield         | OpenFOAM: The Open Source CFD Toolbox           |
|  \\    /   O peration     | Version:  2206                                  |
|   \\  /    A nd           | Website:  www.openfoam.com                      |
|    \\/     M anipulation  |                                                 |
\*---------------------------------------------------------------------------*/
FoamFile
{
    version     2.0;
    format      ascii;
    arch        "LSB;label=32;scalar=64";
    class       volScalarField;
    location    "227";
    object      p;
}
// * * * * * * * * * * * * * * * * * * * * * * * * * * * * * * * * * * * * * //

dimensions      [0 2 -2 0 0 0 0];

internalField   nonuniform List<scalar> 
2283
(
-0.654772
-0.895722
-11.1248
-11.258
9.47094
9.88604
-4.91433
-4.62411
-18.3259
-164.098
-205.399
8.08464
-7.87088
-8.74513
10.3255
0.427628
-1.48648
14.1947
-1.39312
-26.4797
-12.618
-12.6977
-1.26614
-1.30563
-1.37442
-1.72268
0.806127
-26.3656
1.18594
-16.2003
-16.1268
3.09247
3.65426
-1.47647
-1.16262
1.05164
0.826066
-1.56167
-1.49861
-2.0796
-3.2539
-8.3609
-28.6446
-28.1371
-29.688
-30.7249
-9.39515
21.2688
21.9891
-0.0438897
10.4237
-0.272933
-33.0156
-22.7093
-13.2737
-20.0609
14.4509
13.9815
-14.9045
-12.1169
14.6884
-22.8815
-20.5442
-26.5492
-11.1709
-2.49691
-2.63452
-24.9458
10.227
-21.9857
8.3078
2.25919
-8.71887
-0.848212
-4.6934
3.07183
0.402555
-0.496036
-2.52698
-2.33502
-0.423515
0.18673
-21.9518
0.622537
-22.3356
0.540856
-39.2123
-21.056
-26.0184
-25.9005
-9.05329
-90.0383
-21.0635
-1.68512
-1.40966
0.901896
-7.45248
-17.5563
0.639607
-18.1336
-14.2974
-10.9044
-2.23377
-25.0858
-27.2349
-94.6824
-2.77461
-2.38981
7.92132
7.71107
-2.882
2.3158
1.71648
2.09128
0.409076
-56.8177
11.2663
0.66586
-18.8737
-0.503643
3.0503
-19.5063
-0.575691
-0.982491
-27.7776
6.78431
-9.74617
-19.031
-10.6979
-27.1303
5.95373
7.27456
9.26407
-4.59158
6.03971
12.4889
-1.76234
-1.95591
-10.6455
5.2957
15.1198
-2.57312
-5.01552
8.07643
13.1529
-10.9908
-30.9285
-0.802459
-1.04279
-4.66334
0.807136
12.1596
4.11404
3.44972
-10.0258
5.71741
-16.3411
-10.1803
7.19023
-16.0813
15.5549
-2.25868
16.382
-33.7705
-7.41588
-30.2019
-6.1766
-15.8974
-3.27289
5.58014
-28.8184
-28.5317
-12.0607
-15.9855
-4.72139
6.21632
-27.945
-27.4269
-27.4697
-10.5229
-9.29813
23.3732
24.934
-24.7143
19.2545
19.7885
-23.6316
11.6497
10.766
-4.02058
-9.0255
1.19725
-2.34677
-2.83846
20.5808
19.0078
11.4819
11.3039
-22.9521
-23.5199
10.774
10.6353
-10.2174
-24.2116
-10.5305
-10.728
-74.4523
0.622431
11.9751
20.8574
-1.68803
-1.6146
-13.9403
8.80531
-11.4597
7.40052
-39.8984
7.86917
-13.8138
-14.5683
-9.80717
8.2477
-15.1143
-11.1727
8.28842
-15.8992
-9.97732
-15.1736
-10.9202
-0.153172
-15.2039
7.7222
-12.4388
-24.1479
-23.4054
-3.61139
-14.3684
8.45813
-16.3472
-1.61199
-8.92062
8.09583
-15.0751
-2.07092
-9.41841
7.71955
-15.1444
-15.435
6.99329
2.83818
-1.10205
-20.725
-20.5085
-7.94938
-19.8023
-9.03803
-22.283
8.97592
8.16796
-38.8526
-38.7286
9.03095
11.6587
-9.83075
-90.8026
-16.5027
-6.72505
-0.752631
-14.096
-0.68937
9.83154
9.63943
11.5776
5.70118
12.4077
5.59874
-14.658
8.9307
-40.248
8.50575
8.52337
-49.0704
-15.2964
-10.316
-9.38024
5.54833
-23.2705
-13.1494
-13.2016
19.7048
19.0305
2.34763
-23.8488
-30.7215
-16.3165
7.461
7.26702
-28.6474
-4.79685
-29.2531
-31.7917
7.37042
7.52269
-1.42661
-1.46976
-1.14367
-0.882236
12.8847
-8.88247
-10.0847
-0.470531
-2.27225
-0.941185
5.49813
4.41009
17.8478
16.9484
-21.9998
-1.93384
5.82363
12.9979
-11.2049
-2.08895
-11.1521
11.1889
11.2477
10.8742
10.7379
-20.6642
-12.5237
-17.343
17.4173
18.0841
10.0328
-1.49278
-1.65058
10.3214
-19.7979
4.30147
-10.945
-4.95403
3.34397
-58.3164
-65.6484
3.86005
-10.4058
-12.5665
-18.2013
-14.8434
-22.0302
6.15869
-42.7828
12.4558
-4.29605
-1.30288
12.0926
4.62489
8.5824
8.9477
8.48793
8.69834
11.4881
-46.5635
-44.2112
-3.86388
-9.69462
14.8927
-22.1082
-74.0946
11.4611
11.6849
-28.7678
-3.35237
-28.9378
-19.1197
1.46959
-3.13387
-56.5512
-65.9264
-82.5972
-16.1894
2.60829
-1.14225
-0.357394
-0.259406
-26.9377
-1.3595
-15.7639
-15.1773
9.98999
9.81187
12.0775
-9.80876
-19.1329
-28.0708
-9.7234
-27.3692
-18.6594
-77.6337
7.22484
29.6741
13.0039
12.8196
13.2659
28.377
13.6004
4.9118
-11.4595
-10.9574
-11.2953
-21.3354
-18.1127
19.2865
5.91823
11.1449
11.3171
-2.35406
10.6517
10.2958
-9.84203
17.197
22.3158
4.67689
-1.47304
29.157
-1.31835
-1.03726
-1.004
16.8853
11.4993
-1.16759
7.3169
6.604
11.0912
2.5468
-1.40518
-1.51016
-1.48896
8.70226
-20.5456
5.28056
-2.54019
-1.16442
8.16515
1.21283
7.35234
9.34845
-11.8818
-9.60414
5.60259
-11.7584
9.45665
5.9483
12.2796
-1.22897
17.9627
5.56043
14.4931
-1.42168
-2.0133
-1.68838
19.6962
-22.547
0.364621
9.66501
13.3962
-16.1092
-1.33736
-0.529362
0.227921
-1.26998
-22.3783
-30.2514
-1.23984
1.96577
0.829548
2.23312
1.97913
2.70136
5.82643
-15.5854
-5.32873
-0.764236
5.16261
-1.5373
-1.60592
-15.9998
3.38243
-4.4675
23.7075
0.474945
0.883264
0.380348
0.613937
-1.42064
-1.27999
-17.2501
-1.11995
10.4934
-1.33605
-17.342
-13.5992
-1.80397
-1.63798
-13.3623
-14.105
-33.3071
-1.85253
-1.61658
-1.69907
4.1784
-1.27395
-1.70117
-1.83462
-2.23832
0.0862553
-0.0225069
-33.926
-26.3179
-24.1879
-24.196
-26.4715
-1.08865
-1.11821
0.299538
-1.66792
-0.764129
-1.9928
-2.78249
-2.778
-1.80727
4.57027
-10.0569
4.89343
2.85011
-2.58899
-2.36226
-2.31133
0.624198
-2.61128
-38.7629
-36.0855
-16.1117
-20.6508
-14.586
5.37404
-11.116
-1.94839
0.511745
-0.0348824
0.248022
-1.45501
0.362013
0.342033
-0.0208309
0.448715
0.259749
-0.958712
-0.0677502
-1.54079
9.83973
-12.2548
-12.4894
7.48365
-12.8262
-12.4833
7.58158
-1.91989
-0.947973
-1.21627
-1.57852
0.497708
1.47345
8.65355
-0.824679
10.1393
4.20235
-4.31231
13.4324
-3.10229
-2.81202
2.21163
-1.52226
8.32339
13.5391
-4.56677
4.13699
-1.77186
-3.10531
-3.85929
11.1225
-3.28518
-1.07724
11.0993
4.55367
0.602968
0.477005
-1.61337
0.847983
-2.60678
-3.11467
2.03643
1.57032
14.842
-4.42023
-2.02018
25.9712
-2.44411
-0.701989
1.4214
-15.478
15.0266
-15.1179
25.6367
5.65945
-1.34158
-0.872023
-1.14472
-1.22464
-0.12653
3.45728
-1.15972
-1.15416
-0.874381
0.376972
0.110625
-20.2823
-1.22662
-1.61118
-1.19578
-12.9703
-21.2275
-11.9104
-3.13335
-6.33565
15.4291
-1.42806
-1.23296
-12.9289
4.89013
2.11819
-2.80544
-20.1664
11.6585
15.936
-5.67279
1.35981
1.01938
-10.4273
5.49475
0.0194842
-2.62285
3.80416
-1.50098
-1.76537
-9.38385
-2.21971
-1.30775
-7.87414
14.1636
-1.40501
-1.12606
-13.858
-22.1195
-1.60902
-16.3005
14.2907
-2.42694
-2.62629
-0.558775
0.200817
-18.072
-1.1166
-15.4583
-1.36185
-0.747159
-15.5886
-0.369686
-15.1465
-10.2723
-16.4552
-16.0731
15.0225
12.6513
17.018
8.34012
-43.6235
-0.96151
-0.762998
-1.62823
1.07053
-2.28063
14.2164
-15.5783
-15.1352
-0.861643
-3.08713
-15.2955
15.7824
-13.4012
-12.1911
-11.4894
7.52701
-13.3396
13.8
14.2074
14.4648
21.9213
1.19777
14.274
0.915214
5.67389
-10.4784
8.2793
13.5349
-10.4487
-11.9394
-1.15422
7.90226
-1.32839
-0.218079
-12.0107
-14.2602
-14.2789
-16.9956
-17.0991
-0.505152
-17.461
3.27225
-1.3278
-1.19265
-41.3988
-12.104
-12.7836
-13.5969
-12.4429
-11.5877
-0.51407
-11.9969
-0.599587
-0.0561861
23.1175
24.115
-22.0861
0.192707
-0.0477432
-11.3835
-0.363774
-2.05233
2.22542
-39.6836
-37.4192
-22.6303
-13.0923
-6.25776
-1.46949
-1.36516
4.79703
13.9477
-7.25981
-9.94425
-1.19688
-1.12666
3.24926
-13.3937
-0.937433
-22.4791
-39.4637
4.09059
-13.3242
2.51067
-30.553
-17.1021
-0.88896
17.9757
14.1799
10.3234
10.2561
10.7205
-36.6438
1.88606
4.03549
-1.01344
-0.944995
-0.58066
-2.12715
-2.1883
-18.0894
-17.3412
-0.580979
2.69099
-0.290332
-29.8989
4.28544
1.32628
-9.88124
5.19579
-9.65374
-0.172812
-13.7648
-0.318673
-23.4162
-28.3157
-30.593
-30.3807
3.62612
-47.4911
0.711517
-22.735
-3.36099
3.68802
-49.1798
-47.1339
-19.7652
-2.7997
-3.4737
10.7507
-1.05427
10.7516
19.8069
10.8575
15.7851
-36.1113
15.5309
11.8983
11.7057
12.2486
12.2392
-111.462
-23.4166
0.542315
-2.08513
-10.1373
1.50413
-10.7404
1.19076
-3.55864
-1.43287
1.23728
0.903426
-1.18714
0.783732
17.1153
0.437723
-1.93483
4.98415
10.3997
-0.023516
-2.77288
-9.30188
-38.5564
-0.517731
9.8154
-1.0042
-32.233
-0.639581
-2.61865
-35.9447
19.982
-19.0846
-11.2979
-2.9708
-12.9066
-14.1133
18.6575
18.3392
-17.3097
-19.7575
-2.05051
-19.0161
-2.89476
0.105004
-0.0940169
-2.91822
-2.70047
-3.01387
-25.1325
-1.58816
-1.44501
-1.27818
-0.619256
-2.72911
-2.31273
-1.00271
-2.76955
-0.9407
-44.4947
-2.7322
-2.0931
-45.3055
-14.2201
11.3571
-4.14037
-28.0162
-4.25204
-2.82999
-1.46494
12.0386
-34.0706
-1.75505
1.22714
8.53022
9.82702
1.58736
-2.22712
-3.55653
-1.9299
-3.70835
9.73302
12.8768
-11.6652
-3.16673
-11.4403
-17.0415
-22.1358
-3.37544
-41.3932
12.9682
-41.1653
20.0231
22.5123
12.2789
12.6423
-43.805
-5.35528
-1.18987
-1.14041
8.49903
-1.18553
-33.1855
-34.1224
-10.201
9.11053
-20.2243
20.3715
-10.6315
-2.37215
-5.95467
20.08
-5.98982
19.2446
18.2565
-2.88247
-40.8873
6.35766
14.4668
0.514662
0.808753
14.3807
-10.0282
13.6416
22.6463
6.13851
11.5993
11.275
-14.1921
14.2826
-9.19439
32.731
17.1292
6.46187
8.96127
-8.59186
11.897
-1.74282
3.1687
10.6651
-3.17273
6.8398
6.47337
-0.426206
-0.163924
6.58004
-39.7853
-1.41594
-10.6459
-3.94432
-6.05888
6.84851
-24.9109
8.95241
-43.5024
-23.7903
-14.8024
-14.4963
-14.5331
-1.18868
-43.7978
-11.5335
8.32444
-48.7933
-1.10529
-17.9049
-47.1246
-6.33466
1.6579
-14.9214
-15.0163
-23.065
3.13965
0.301003
6.77979
-4.96064
-5.13678
-9.91064
-8.08952
-19.8262
0.336535
-10.499
-9.68803
0.0213149
5.91939
-3.89991
-3.28241
-9.48533
-3.10325
11.4988
-3.34207
-9.11454
-7.89694
-3.01672
-2.71307
-28.6393
1.86841
1.25984
6.08521
0.441731
1.0171
0.450696
0.224914
-22.5005
-22.7667
-28.6325
-11.3384
-35.3685
-2.41263
-2.42386
-36.1689
-4.25285
-10.7991
-23.4566
6.96428
15.8949
7.63985
7.44303
16.4596
-0.557995
16.3866
17.9605
-23.5528
-22.9271
-11.7379
-5.69241
18.5791
-33.6745
-13.8021
-13.6391
3.42508
-0.861097
-2.85289
-6.28161
-7.42618
-22.0172
13.9406
-10.9843
-11.848
3.05912
-18.136
-18.532
-18.5935
-11.6774
-10.049
-58.2473
-3.06111
16.9482
-2.368
-1.43532
-2.67808
-1.8069
-2.36238
-2.13504
-1.98553
-2.87923
16.2043
-0.671409
6.22659
7.12195
6.73934
1.60212
12.2511
12.2257
11.9037
-2.70172
-8.54958
-1.48453
-1.2898
3.96791
7.61096
4.78336
5.51348
-12.1071
2.86494
7.35365
2.98905
4.10744
3.67385
11.4003
-0.955601
7.62336
-1.11433
-3.28428
-36.6047
13.2201
4.98124
2.79986
-35.9518
-5.38163
-22.0147
-11.8072
4.39055
-2.68339
10.5616
-8.88164
5.67724
-1.80927
5.89788
-8.0342
6.35466
6.43932
0.131592
7.2945
-1.22307
5.61627
-9.33425
2.77053
6.64264
-3.79209
-3.93895
-20.4586
-1.97578
-19.7395
4.84389
1.40437
-20.5063
-7.36517
13.4443
13.4484
16.2536
-25.0451
-29.3303
-26.2819
25.9519
-36.7137
-1.11901
-48.9724
0.201575
-0.741857
-9.84281
-1.11179
-51.2705
-25.538
-15.1224
-50.0026
17.2729
16.9933
-73.9013
-52.3611
-17.9028
-18.5791
-26.7293
-27.3348
-1.906
-27.3984
-27.8831
-1.39529
11.9893
-1.44637
-1.87345
-0.420389
-0.0680372
-26.0871
-2.60544
5.67976
-1.22056
-2.30331
9.45131
-27.1394
16.6776
13.1376
-25.3635
7.18452
-16.494
7.26001
-0.675456
7.13984
-1.12414
7.4481
-16.6592
-15.4781
-1.58835
-1.4156
-28.5659
-30.1836
-42.5417
-12.6125
-6.86007
-1.53344
2.60033
-15.9955
16.8092
2.09802
-2.48364
-1.44917
-16.7154
-10.0085
-68.7572
-2.73018
-90.0907
-84.2036
0.8813
1.26221
0.946604
1.30121
-24.6777
-24.8808
-15.5346
7.03307
7.05669
-1.20113
-1.55616
-49.1898
-1.3786
-5.98784
10.5561
-0.974059
-17.7764
-15.2435
-18.1131
1.02164
0.950979
-1.15506
6.41049
-1.51837
-1.20901
5.03615
-55.14
-16.0926
-18.1062
-10.1863
-24.2606
-10.3821
-2.15363
7.91108
7.39981
24.6161
-7.53949
-5.93567
-5.00095
-74.6778
10.0552
9.80494
-13.82
9.89554
6.25633
-17.5237
-10.4393
-8.17032
-22.3124
-2.06955
-0.793387
-0.854605
-2.69458
14.0922
12.2755
14.3128
-2.30248
-19.1452
7.08548
24.5614
-1.69083
-2.06361
-1.83657
10.3058
10.692
-58.7556
-1.35977
-1.70656
-2.99252
6.79185
-1.15997
-13.9733
-13.9335
-2.75039
13.9934
9.48182
-0.464209
-2.85547
11.318
-14.9015
-0.774718
-1.66885
3.44713
-19.3396
-39.3211
-38.0169
5.50533
5.05088
-4.09344
10.2435
9.97449
-2.91851
-3.83098
-0.361945
13.1513
-14.3991
-14.0357
-6.76502
-0.413106
-14.5128
-1.26549
-1.21656
6.60767
9.08865
9.16391
-5.88176
6.48255
-12.4207
3.31559
-5.53259
14.2864
-0.742699
14.2964
14.5387
3.86489
14.6074
-1.03328
-0.963936
-5.07779
-13.4322
-4.96125
-0.99655
-1.14546
19.7324
-1.14014
-1.20345
-5.19846
22.4893
12.2488
12.0669
-12.7258
-19.7531
-19.8871
-11.0554
-8.88088
-12.4007
-35.2148
-1.0563
-0.215375
-19.2247
-12.5732
7.49752
7.76079
7.8076
7.47981
7.94148
20.4901
15.2641
8.19363
7.55448
-1.7778
-0.458811
-0.215309
16.8766
-50.2815
-8.592
5.16492
-112.311
13.3548
-12.7168
-34.1767
-33.8233
7.76488
-9.41897
-1.39618
-2.60719
-7.75913
-2.0842
16.0382
-9.13588
14.4109
-0.831763
-0.106691
21.0722
12.4274
15.6422
16.1936
-8.16432
11.7914
6.39884
-14.087
-13.999
-14.0279
-12.3555
13.7574
13.8984
-6.56663
-29.3516
-45.4365
-8.21043
-69.6118
3.36172
6.72513
-10.2911
-26.6711
-2.88911
-56.4242
6.21869
-10.6543
12.883
-2.81973
-10.1472
-2.09496
-3.59943
-10.242
-56.8005
-3.22293
-0.655533
-0.398931
-0.234479
-0.0335072
7.09753
2.09544
-0.247655
-0.456962
1.7603
11.2731
-15.2627
1.77329
-9.52934
-1.25234
-1.34394
-4.47658
-2.95048
11.245
-15.3771
-33.4629
-24.5285
-17.1069
-10.5554
21.8888
11.6215
-0.882216
-1.13137
14.4955
-22.0445
13.1272
21.2439
19.5206
20.559
-59.1455
-15.1051
0.813795
-98.7831
18.198
-9.50643
-9.7194
15.1846
18.8548
13.5795
7.68349
4.65535
5.35144
5.63638
5.15829
-19.3489
-9.91163
-10.1276
-2.78867
-16.6216
-4.57435
2.44565
-2.7446
-14.9573
-84.4932
1.13478
0.0693842
-0.137985
-3.65603
-30.4065
-3.76748
4.26897
0.430357
-25.4951
-26.0301
16.5102
5.18247
23.3812
22.2757
-4.42757
-3.97977
6.59398
-14.3529
-18.0056
-20.663
-10.781
-18.2242
-0.32748
-0.826543
-36.5531
7.67106
-18.838
18.2055
7.80533
-13.5515
-18.4084
5.6201
-10.291
5.05671
-10.5248
18.9695
7.4413
-12.9703
12.2547
-3.47372
8.81353
-1.35514
-3.59254
-1.20263
-13.7125
-14.7147
7.93223
-16.9113
8.11447
8.1135
-18.8129
-21.233
5.92876
-17.8417
-11.7483
-12.3459
11.9081
12.9808
-21.836
12.313
-33.5662
4.33527
-1.3528
-1.34652
-1.94022
-3.07941
-1.77613
5.05178
-17.1399
-11.3326
-17.5895
-2.03622
-21.4938
-2.29974
-13.741
21.7752
-29.7379
20.7957
-12.093
-13.6553
-21.1132
-34.5721
-33.2511
-21.2186
2.04417
6.55716
7.08384
13.9163
14.419
6.12344
6.50386
-31.8779
-17.8715
-32.1807
15.2951
-1.79413
1.37684
-34.1657
-21.1747
-15.6044
-1.71188
7.14762
7.29208
1.35264
0.165678
-34.3891
-34.974
-12.8646
-15.5326
-11.1351
-1.33092
-0.251413
-11.2439
-1.75918
-1.58082
-11.7199
-11.0815
-10.4703
6.9351
-10.3233
-34.9174
-13.6664
2.50785
-0.480355
-12.5456
2.2201
-17.0171
-13.3156
-17.5532
-16.2533
-13.2859
4.3189
-37.6257
-36.9068
-38.0172
4.60685
12.3249
12.351
-2.2779
12.8039
-10.6493
-21.3842
0.532192
9.14465
-14.9736
9.4158
9.30713
-1.08362
-20.8676
9.35487
17.0536
17.1623
-1.08815
9.52561
-13.6006
-16.8257
4.25647
-11.917
-1.22338
-0.992178
-1.1888
-0.488775
-13.0873
4.07836
3.57992
-25.5812
-14.4017
-24.926
10.638
-13.3314
10.0031
15.529
9.94863
-24.7487
10.2319
10.3884
-3.85898
-16.4979
3.08602
9.16178
-28.1261
-14.2935
-1.0165
-13.888
9.05878
-13.4917
11.9199
-13.8394
9.27462
5.21864
-12.1217
15.8064
-13.5969
-14.5058
16.1932
11.0687
8.22111
11.5195
15.0507
-4.03274
-14.56
-28.4777
-22.2973
-1.6445
-14.6039
-11.8794
6.10492
5.84734
-4.60167
-20.8161
20.3991
-12.6523
-27.7373
-0.554102
-0.794684
-0.606303
-0.452627
9.11121
-12.9554
8.95777
-31.7404
-3.95625
25.262
-1.13341
-0.955212
10.9115
-0.882445
-15.5232
-3.05103
7.24667
11.0534
-20.5978
16.7946
21.3578
9.95674
-21.9492
9.50955
-1.14205
19.3531
-21.9502
18.9664
9.61729
-0.376402
-22.7277
17.2538
17.2001
-14.6525
11.4603
7.13992
-21.0658
-47.4161
-15.6375
10.8175
11.1392
-8.65311
-11.8502
15.5332
16.3333
21.8888
-16.9995
19.8718
-13.3966
-10.8899
-15.5822
18.1895
-23.8361
-13.863
-1.6114
-1.87724
-23.295
-12.502
-20.7448
-23.8861
-10.9089
-20.7266
6.39735
-24.7456
-8.57315
1.26937
-22.5645
0.329768
6.95238
5.88351
-50.2776
12.387
-14.5872
-16.178
0.947413
0.41862
11.2496
-15.1679
-32.1264
-34.1962
-17.0575
-18.6829
-26.6811
-30.0933
-19.2636
-220.335
-15.2156
-19.5098
-0.822662
-1.02888
-13.1944
-0.712332
-1.97487
-1.30929
14.8512
-19.2849
6.78817
14.8116
-9.92678
-1.06106
-16.0334
-1.03273
-11.7624
11.2855
13.3582
-18.3163
12.8678
13.7247
15.1361
-33.0355
-31.7686
-30.7606
-15.9923
-26.942
10.2269
-11.493
9.74542
-15.5064
-24.6701
-13.1131
-48.6918
-2.81166
-14.202
-10.9602
-10.3444
-2.92795
-12.054
11.5144
-10.0685
5.33086
-9.99825
14.8543
-0.157918
-14.3818
-13.9988
-13.7073
-15.4052
-40.6182
-14.6662
17.5746
-11.388
-14.7196
14.3217
10.4773
10.4448
-12.9428
20.6534
10.7723
12.8231
2.52773
-13.9876
2.94433
-15.9966
-14.2395
-13.0438
17.3832
1.22661
-12.9724
-37.6878
2.96275
1.28213
-29.0547
-23.6448
16.9383
-28.5519
14.7253
5.52613
16.1945
-43.2099
-36.8414
-16.6569
-23.387
11.589
21.3275
14.4524
-11.1778
-20.9354
8.68085
-2.11577
8.38297
8.79919
-1.71151
-5.58217
-19.4631
-16.4719
-20.4408
-0.636737
-0.875209
-0.691011
-26.8651
13.4159
13.4551
14.8729
-10.2406
-21.867
-11.2948
1.02456
15.3036
-10.9867
4.00807
11.5578
-19.0908
-13.2304
15.3985
11.5879
-0.979889
-12.8893
-12.942
3.71018
7.2375
-13.5741
7.27703
-60.4206
-18.9001
21.7125
-0.311939
15.3274
16.8297
-36.0204
-37.816
-18.2171
8.18964
8.14961
-13.3046
-18.842
-8.66706
4.33958
4.60349
11.8247
-13.7655
-15.7361
-12.0284
-27.1457
12.1706
-9.59208
-23.1437
6.85783
7.79427
8.3374
0.279316
8.43879
-0.362268
4.87307
-24.6364
11.7711
-13.2498
12.6792
-33.9019
-20.4466
9.47005
-0.930915
10.3697
-30.8571
11.9072
11.9403
-42.2804
9.19529
12.2959
12.7244
-32.5799
-2.48679
10.9395
12.8029
12.4079
13.9872
-37.681
12.4999
-28.5536
3.13069
-30.7922
3.93218
-32.3973
-12.9397
-17.0057
-16.9131
17.4336
-19.7916
-10.0921
-44.4958
-10.2947
-0.997729
-26.272
-14.5914
-38.3645
12.0473
-38.7236
9.3372
-40.938
-16.1355
-18.5387
8.59608
-16.648
9.23233
-17.929
-34.1155
-35.0081
-17.5808
-23.1817
-23.0964
-16.2005
-23.4129
-23.0926
-14.0455
-25.0857
-21.4387
-26.2094
-4.80856
4.71427
-20.3649
15.2788
-50.4432
-16.5074
-16.8652
-2.08506
-16.7219
-49.4785
-17.2922
-26.5994
-1.86766
-16.1902
-12.8759
-21.4045
-13.2146
-9.32158
-11.4035
-42.5011
-25.1557
-25.3208
-17.4341
5.94952
-24.6688
-13.4078
-24.7666
-14.6202
-15.3026
-1.27694
-0.983896
-1.19731
-53.1597
-50.7137
-13.2976
-13.7273
9.47543
-11.3709
-10.842
-13.1048
-13.7571
-15.1438
-18.4728
-18.6309
-10.9798
-10.6348
-0.638778
-21.138
-15.6647
-11.4142
-12.1992
-9.98963
15.3243
-20.5988
-65.1329
-17.1471
-17.6823
-20.6832
2.69456
-9.13213
-77.6449
-12.5309
-13.0405
11.8865
12.2393
11.6774
-11.0098
-16.48
-59.5441
-32.7646
-12.9102
1.88469
-1.52763
-61.0136
-7.99797
-43.3793
8.14387
-23.6127
-24.9121
2.92763
-24.7008
-25.6921
9.87939
-9.95986
2.98178
-32.726
-14.8217
-14.4336
-28.4824
-11.6815
-14.2705
-13.2236
-17.6975
-46.1252
-0.588315
-4.82018
-7.77936
-25.6215
-11.9657
-21.882
-39.9868
-38.9018
-0.298158
-0.264791
-41.5292
-19.7434
-3.95187
-35.7706
-5.81446
8.31352
-16.1908
-16.2546
-40.9244
-12.494
-16.8004
-53.5374
-13.9293
-28.6823
-28.6274
-17.343
5.50393
5.57252
20.4479
-17.5112
21.0363
21.2239
-9.93567
-9.98292
-16.6647
-26.2821
-11.3926
-11.2437
-7.45665
-7.29714
-11.5063
-6.47369
-14.1677
-19.8756
-26.8787
13.8078
13.9678
-12.3263
-16.9622
-16.9679
-12.515
-13.0039
-15.381
-12.5843
-22.913
-19.5269
-19.2464
0.470445
-18.8304
0.728093
-24.2709
-19.5401
4.82681
-18.0808
-20.1046
-11.4246
-26.5836
-24.5317
-14.5016
-10.8184
-35.8186
-34.2037
-14.2447
4.9752
-13.9768
-16.8687
-14.5129
-14.3434
9.30748
9.59658
-4.94837
-10.5203
5.42636
-9.90664
-10.3037
-16.9014
5.21311
-10.6363
-9.75782
-10.9184
-10.56
-59.2296
-16.4611
-24.2769
-10.1201
-11.0609
-11.6756
-27.0596
5.63579
-20.475
-24.0903
-13.7541
-39.8886
-17.1252
-17.2558
-11.8846
-23.5171
-22.17
-21.5848
-29.9547
-13.6036
13.0545
-20.0752
-14.9457
-19.4494
-15.5038
-12.8537
-30.6278
-19.7531
-46.4108
-18.6779
-11.6659
-16.1525
-35.5242
-37.9592
-52.3345
-87.3297
-11.2767
-84.9547
-9.95219
-11.6027
-13.7734
-25.9183
-15.3124
-9.97177
-17.9123
9.9027
-37.0958
-40.1785
-21.1168
-20.5443
-25.5863
-6.72368
-11.0984
-6.91988
-19.6738
-6.12671
-20.926
-44.2889
-10.8789
2.15168
-9.91341
1.84479
8.83506
-33.2284
-13.4567
-10.2742
-10.9267
-14.0112
-35.6535
-17.1918
-25.0341
-13.4143
-13.6316
-14.6554
-12.9922
-12.7865
-23.8739
-30.7508
-22.0805
-15.1978
-17.2272
-14.7663
-15.1211
-15.1596
-13.1975
-6.82383
1.08467
-22.8268
-12.2543
1.45345
-11.1802
5.36877
-14.6925
-11.2778
-53.4491
)
;

boundaryField
{
    frontAndBack
    {
        type            empty;
    }
    outlet
    {
        type            freestreamPressure;
        freestreamValue uniform 0;
        value           nonuniform List<scalar> 7(-5.16659e-06 -2.50465e-06 -0.000105375 -8.99921e-05 -0.000524145 -0.000513094 -4.83755e-09);
    }
    walls
    {
        type            zeroGradient;
    }
    inlet
    {
        type            freestreamPressure;
        freestreamValue uniform 0;
        value           nonuniform List<scalar> 7(-1.04279 -1.14472 -0.505152 -0.937433 -2.0931 8.53022 9.82702);
    }
    airfoil
    {
        type            zeroGradient;
    }
}


// ************************************************************************* //
