/*--------------------------------*- C++ -*----------------------------------*\
| =========                 |                                                 |
| \\      /  F ield         | OpenFOAM: The Open Source CFD Toolbox           |
|  \\    /   O peration     | Version:  2206                                  |
|   \\  /    A nd           | Website:  www.openfoam.com                      |
|    \\/     M anipulation  |                                                 |
\*---------------------------------------------------------------------------*/
FoamFile
{
    version     2.0;
    format      ascii;
    arch        "LSB;label=32;scalar=64";
    class       surfaceScalarField;
    location    "227";
    object      phi;
}
// * * * * * * * * * * * * * * * * * * * * * * * * * * * * * * * * * * * * * //

dimensions      [0 3 -1 0 0 0 0];

oriented        oriented;

internalField   nonuniform List<scalar> 
3327
(
-0.0861454
2.08595
-1.9998
1.80769
-1.89384
-0.00858407
0.00117846
0.00740561
-0.00199374
-0.00659034
-0.0214439
0.00447798
0.0169659
-0.0167745
-0.00466936
-0.334912
0.438851
-0.103939
0.110694
-0.445606
0.00477428
-0.00477428
0.017674
-0.00369341
-0.0139805
0.017674
0.10033
-0.107168
0.00683805
-0.00275579
0.0181929
-0.0154371
0.0699077
0.0433576
-0.113265
0.0396496
0.0606799
0.0594298
-0.251853
0.192423
0.218431
-0.159001
0.00117003
0.0230036
-0.0241736
-1.52569
-0.513603
2.03929
-0.00854204
0.00801495
0.000527093
-0.0134753
0.0179677
-0.00449234
0.00597968
-0.019455
0.367004
-2.40725
2.04025
-1.85875
2.22575
0.208491
-2.19313
1.98464
-2.1648
2.37329
0.384824
-0.664987
0.280163
-0.0422117
0.0186277
0.023584
0.367146
0.0176784
-0.00458326
0.000267229
0.00431603
-0.00458326
0.213563
0.177249
-0.390812
-0.122339
0.335902
1.33348
-2.07837
0.744887
-0.707656
2.04114
0.207155
0.289697
-0.496852
-0.335585
0.54274
-0.785358
-0.191799
0.977157
0.560767
-1.34612
-1.73267
1.92172
-0.189046
-1.73267
-0.0442443
0.114152
0.0118669
-0.0114756
-0.000391311
-0.00138555
0.0132525
-0.000985739
0.0379505
-0.0369647
0.0256912
-0.026677
-0.0261881
0.0108798
0.0153083
0.0141832
0.00578377
-0.019967
-0.00464304
0.0188263
0.925764
-0.849411
-0.0763529
-0.00864034
-0.00996436
0.0186047
1.44804
-0.522278
-0.0139611
0.0139611
0.0260495
-0.00529693
-0.0207526
0.107822
0.0368913
-0.144713
-0.0171103
0.0128701
0.00424015
0.0194723
-0.0183022
0.00589051
0.0412841
-0.0471746
-0.0027558
0.139836
-0.0320136
-0.0192684
0.0251589
-0.109318
0.114926
-0.00560819
-0.00527724
-0.011833
0.0111832
-0.0485833
0.0374001
0.00361227
-0.00361228
-0.124358
2.39115
-2.26679
-2.4093
2.28494
0.0580016
-0.0468184
0.00244946
-0.019224
0.0123389
-0.000698149
-0.0116407
0.0304577
-0.00903079
-0.0214269
-0.00770486
0.0196933
-0.0119885
-0.0631712
-0.070461
0.133632
1.80769
0.0156801
-0.238435
0.222755
-0.0183274
0.0106226
-2.09879
0.355837
1.74296
-2.85577
0.756977
-0.195379
-0.669306
0.864685
0.976104
-1.17148
-0.410976
0.746816
-0.335839
0.0518549
-0.462831
0.0188211
0.00722841
0.0216975
-0.00200417
0.00450127
-0.00450126
0.0153879
0.00630962
0.00531698
0.00818821
-0.0135052
0.0127201
0.0204872
-0.0332073
0.00510017
-0.0142229
0.00912275
-0.0126984
0.0177985
-0.0754583
0.0312139
-0.0170632
0.0139805
0.00308271
0.0315412
-0.751236
-0.369996
1.12123
-0.6839
-0.067336
-0.0849785
0.61803
-0.533051
0.120774
-0.183945
-0.00378429
-0.00722886
0.0110132
1.24455
-1.32953
-0.00791354
0.00412925
-0.178191
0.00468392
0.173507
-0.0574174
0.596176
1.38291
-1.97908
0.0180216
-0.0108019
-0.00721975
-0.00373615
-0.00112766
0.00486382
-0.0170632
2.046
-1.44982
-0.221412
-1.14185
1.36326
0.0104945
-0.0104244
-7.01653e-05
0.0104945
0.891861
-1.11327
-0.225743
-0.0808014
0.306544
0.141403
-0.149995
-0.0809146
0.230909
0.145026
0.092735
-0.237761
-0.0170632
-0.0392001
0.057393
-0.111947
1.57244
-1.4605
0.00949309
-0.00392413
-0.00556897
0.2348
-0.089774
-0.0981804
-0.0518144
0.0152301
-0.00276868
-0.0124614
0.252947
0.382365
-0.635312
-0.205214
0.458161
-0.00373615
-0.0398422
0.000642107
-0.0719031
-0.00355512
0.0114733
0.00375679
-0.000185896
0.0207609
-0.0205751
-0.00365764
0.0200201
-0.0163625
-0.00242993
0.0302224
-0.0277925
0.0104244
-0.00878972
-0.00163463
0.158628
-0.263819
0.105191
0.0324304
-0.0348603
0.0148024
-0.00598934
-0.00881307
-1.08014
0.710143
-0.254871
-0.825267
0.0110129
-0.0111988
0.0138116
0.0182387
-0.0320504
0.0174794
-0.0367477
-0.10295
0.0370413
0.0659085
0.0876305
-0.0738189
0.0307437
-0.0338418
0.00309807
0.01037
0.0309141
0.00484091
-0.00366245
-0.0327349
0.0447001
-0.0119653
-1.79003
-1.06574
0.785881
0.200198
-0.149063
-0.0511355
0.121407
1.12314
-0.0532346
0.0636046
0.178637
-0.131324
-0.0473132
0.238666
-0.060029
-0.0135163
0.00657206
0.0069442
0.00119424
0.015758
-0.0169522
-0.000524222
0.00751849
-0.00699427
-0.0106597
0.0131373
-0.0024776
-0.0254809
-0.00204408
0.0275249
0.00280068
-0.00887269
0.00607201
-0.0195039
-0.00911224
0.0286162
2.08252
-0.227754
-1.85477
-0.0339779
0.014474
0.0118522
0.0138698
-0.0257221
-0.312734
0.384656
-0.071922
0.0261198
-0.000428589
-0.279235
-0.0334989
0.0106584
-0.00785773
0.158997
0.426552
-0.585548
0.0627066
-0.00684582
-0.0558608
0.00468102
-0.000323815
-0.00435721
0.00468102
-0.00766457
0.00184883
0.00581576
-0.00939691
0.0339788
0.391557
-0.425536
-0.0139611
0.0292018
0.0087487
-0.0130099
-0.00169996
-0.00684207
-0.00549245
-0.00801073
0.0135032
0.0445287
-0.0284091
-0.0161196
0.0169108
-0.0174654
0.000554603
-0.0133842
0.00939294
0.00399128
0.00723627
-0.00148731
-0.00574895
-0.0049833
-0.014145
0.0191283
0.00877202
-0.0137553
0.00723628
0.0169108
0.0158941
-0.00601765
-0.00987644
-0.0133842
-0.0133346
-0.00210252
0.0154371
-0.915902
0.171036
0.744866
0.122443
0.095988
0.215878
0.00432771
-0.0177071
0.0133794
-0.0163274
0.0206551
-0.0251988
-0.0131586
0.0383574
-0.0447013
0.0195025
-0.0302099
0.024913
-0.0232008
-0.00700906
-0.0106084
0.0224477
-0.0118393
-0.0318817
0.0212733
0.00236934
-0.00786179
-0.0116545
-0.0115463
-0.0133346
-0.0348819
0.0326416
0.00224034
0.0278517
-0.0315451
-0.0256686
-0.00921328
-0.00719126
-0.03751
0.0177672
0.0148676
-0.0326348
-0.840428
0.667932
0.172496
-0.907097
0.0666689
-0.00766457
0.0027803
0.0187144
-0.0214947
0.00274426
0.0143029
-0.0170472
-0.0349869
0.00950605
-0.00648844
0.0104441
-0.00395568
-0.0042432
-0.00332737
-0.0270871
0.0304144
0.00581577
-0.00581576
-0.00766457
-0.075938
0.0196552
0.0562829
0.0027558
-0.00879971
0.00604388
-0.0105766
0.0133209
-0.018678
0.00494552
0.0137325
0.000869707
-0.00431603
0.00344633
0.00112494
-0.0117846
-0.00792501
-0.000161929
0.00808694
-0.000542009
0.00794762
0.0979133
0.257401
-0.355314
0.00335453
-0.0112795
0.00878972
-0.00878972
0.00021603
0.0065232
-0.00673923
0.0144489
-0.0261034
0.0349822
-0.0205332
0.025829
-0.0514976
0.0055226
-0.00327133
-0.00225128
-0.131681
0.00922461
0.122457
0.29161
-0.193697
0.139089
-0.0325894
-0.1065
-0.0194466
0.0152034
0.0055226
0.132609
-0.0250632
-0.0903167
-0.0413645
-0.00863375
0.00847182
-0.0129288
0.00429507
-0.0289747
-0.0555089
0.0844836
-0.0961396
-0.104101
0.20024
1.73229
0.333045
-2.06533
-0.000905155
-0.00415259
0.00505775
0.00420543
0.0005098
-0.00471523
0.182446
0.00420543
-0.0114598
0.0434561
-0.0319962
-0.00879971
-0.0775866
0.00164858
-0.131361
0.0410439
0.0116232
-0.015169
0.00354584
0.0169402
-0.0597229
-0.0178637
-0.0144127
0.0037155
0.0106972
0.00605351
-0.00368418
0.00744468
-0.00744466
-0.0181388
0.0312697
-0.0131308
0.0488583
0.133588
-0.704759
-0.247827
0.952585
0.00232916
-0.0115368
0.00920767
-1.08857
0.383814
-0.0973879
0.037665
0.0445276
-0.042879
0.00791888
-0.0611535
0.018535
-0.0173407
-0.0353111
0.0281199
-0.031728
0.0282849
0.00344308
-0.00470282
0.00703198
0.0310615
-0.0205971
-0.0104644
-0.0185684
-0.0276332
0.0462016
-0.0138924
0.0125959
0.00129653
0.0321738
-0.0507422
0.0080809
-0.0163301
0.00824923
0.00605351
-0.0154463
-0.00961685
0.0380521
-0.133606
0.0955537
0.0349038
0.0230978
-0.0137675
0.00304352
0.0107239
-0.0157984
0.00203092
0.0199665
-0.0193266
-0.00063987
0.00582149
0.154273
0.0437924
-0.198065
0.04143
-0.0065262
-0.0068326
0.00532165
0.00151094
-0.00397448
-0.000608777
0.0114491
-0.000954625
0.0114491
-0.00293955
-0.00853605
-0.0273183
-0.0756317
0.00927283
-0.0122124
0.00122463
-0.00805722
-0.015916
0.00748053
0.00843546
-0.00251083
-0.0134052
-0.34807
-0.33583
-0.602941
0.421589
-0.488925
-0.666983
-0.0378109
0.00249976
0.0450253
-0.000496652
-0.0210777
0.0381483
-0.0170706
0.0540019
0.180799
-1.30996
0.168111
0.287999
-0.233997
0.0940869
-0.0560349
0.0430985
-0.0784212
0.0353226
0.0186404
-0.0113543
-0.00728614
-0.00795204
0.0175688
-0.00961671
-0.0296721
0.0527699
0.0547409
-1.3647
-0.0318142
8.61783e-05
-0.00459473
0.0162134
-0.0116186
0.00731298
0.0234954
-0.0308084
2.03901
-1.87089
0.0216159
-0.0049046
0.0144902
-0.00958558
0.00873633
-0.0136409
0.00792363
-0.015614
0.0076904
-0.00878109
0.0167047
0.0498336
-0.0795056
-0.00441777
0.00441777
-0.0366253
-0.0138666
0.0504919
0.0106884
0.0158243
0.00959471
-0.025419
-0.0123351
-0.0111339
0.0234689
-0.766881
1.08624
-0.319362
-1.55662
0.789737
-0.0198339
0.00749887
-0.00623899
0.0191091
-0.112416
0.059578
0.0528381
0.0300476
-0.00655218
0.296333
-0.262354
-0.131507
0.0333266
-0.0048718
-0.00215773
0.00702953
-0.0048718
0.0805818
-0.0374833
0.00896989
-0.00343815
0.00365418
-0.0148719
0.0249924
-0.0101205
-0.00343815
0.0122835
5.53737e-05
-0.0119988
0.0143526
-0.00235381
-0.0131613
0.0135118
-0.000350548
-0.00496541
0.0330853
0.454961
-0.940006
-0.676019
1.61603
-0.0121969
0.0158756
-0.00367878
0.0418569
-0.0179267
0.00171303
0.0162136
-0.00441595
-0.0135107
-0.0181286
0.0198417
-0.0189718
0.000843181
-0.000968892
-0.011228
0.0153287
-0.00131685
-0.0140118
0.0021674
0.536416
-0.576089
0.0396731
0.00973921
-0.0343115
0.00737466
0.0269368
0.0111918
0.00109171
0.0165192
-0.0169147
0.000395582
0.0136573
-0.0146262
0.0136573
-0.0131099
0.0321143
-0.0190044
0.581745
-0.0453288
0.00780136
0.0224437
-0.030245
0.297872
-0.649967
0.352095
0.623772
-0.0420272
0.0115308
-0.0134339
0.00190315
0.0040627
0.0124565
0.00300159
-0.0199163
0.0133842
0.000576864
0.0365825
0.202083
1.94856
-1.3415
-0.607057
0.0931598
1.60426
-1.69742
1.32618
-1.23302
-0.0051688
0.0237965
1.17598
-1.18587
0.00989191
0.0142237
-0.0393664
0.0251427
0.0572946
-0.0430709
0.0118583
0.00987603
-0.0217343
0.0208547
-0.00899646
0.00198633
0.0157809
-0.0376673
-0.075598
-0.0144843
0.0222856
0.0231987
0.00891561
-0.0329088
0.0324929
0.000415863
0.0180299
0.0345574
-0.0121137
-0.0270172
0.0300188
-0.0113828
0.0104282
-0.0110533
0.0110533
-0.00148003
-0.0144973
0.0159773
-0.0232302
0.0217502
-0.0242421
0.00974483
0.0142309
-0.0142309
-0.0175762
-0.00666597
-0.0864301
0.0080089
-0.00188331
0.0120102
-0.0101268
0.00841103
-0.0102943
-0.0109816
0.00898789
0.0196855
-0.0167052
0.00675763
0.00994757
-0.100878
-0.0327277
-0.00464314
0.0201772
-0.0155341
0.010915
-0.0155582
1.03084
0.0129848
0.00843779
-0.0214226
0.0260802
-0.0130954
0.000308779
0.00688566
-0.00719444
-0.0159371
-0.00697032
0.0229074
0.00484913
-0.0151099
0.0102607
0.0764048
-0.21037
0.133965
0.556837
0.00317761
-2.38701
-0.0202398
0.845205
1.19504
-0.292693
-1.82588
2.11857
0.00813157
-0.0240687
0.0147922
-0.0318019
0.0170097
-1.83944
1.54675
0.110198
-0.0122207
-0.097977
-0.129853
-0.0170895
0.444783
-0.267534
1.47397
-1.5311
0.0571279
0.533963
0.218042
-1.74914
0.00543077
-0.0193232
0.0276039
0.0039374
-0.184893
0.235672
-0.0507786
-2.57263
1.86497
0.406302
1.63483
-0.0132473
0.273514
-0.00554748
-0.267966
0.00599602
-0.0265931
-0.000990549
0.00626489
-0.00527434
0.00342194
-0.00311316
-0.0462995
-0.0401306
0.00266363
-0.00365418
0.0204685
-0.0144725
-0.199709
0.15321
0.0464989
0.0239552
-0.0219688
0.0396471
1.26236
-1.30201
0.00999295
0.0139622
-0.00269707
0.0184551
0.0117933
-0.0120982
0.000304903
-0.467693
-1.37175
1.44738
-1.91507
2.19791
-0.750524
-0.00771415
0.00619348
-0.000663278
-0.0055302
-0.41332
-0.453707
0.867027
-0.0149463
-0.0116468
-0.00879326
0.0185381
0.00496326
-0.00778572
0.00282246
1.46741
-1.69194
0.224532
1.17879
0.269255
0.800597
-1.21392
-0.0102037
1.95877
0.00619348
0.0020085
-0.0210129
-1.48895
1.47874
-0.345625
-0.0302875
0.375912
-0.476974
0.766671
-0.0301979
-0.315427
-0.306897
0.27661
-0.270315
0.0115359
-0.0115359
0.00583296
2.78306
-2.28494
-0.498119
-1.919
1.919
0.864059
0.894445
0.273316
-1.61482
-0.0243548
-0.0374282
0.0617831
0.186334
-0.0186776
0.0140345
-0.89026
0.244398
0.645861
-0.117733
-0.772527
-0.983535
1.22793
-1.09548
1.4493
-0.0163164
0.0131617
0.00315462
-0.852319
-1.53469
0.00725376
0.0956587
-0.0135207
0.0218253
-0.00830455
-0.00889683
0.0598493
-0.0509525
-1.08766
0.864289
0.223372
-0.110504
0.0199867
-0.0169431
0.0456372
-0.054534
0.0423482
-0.0118948
-0.0304534
0.733101
1.5503
-2.2834
1.70876
0.489151
2.44186
0.307232
-0.230827
-0.0892011
0.3772
1.60432
-0.360255
-1.24407
1.28496
0.146852
1.13811
-1.12313
0.273717
-1.00126
0.924908
0.00961338
0.0621403
-0.0618744
-0.000265952
0.015322
0.0224327
-0.0888136
0.0663809
-0.0394416
0.714406
-1.39043
-1.02528
1.73969
-0.064769
-0.600218
-0.360047
0.270845
2.0359
-0.179337
-0.180709
0.0566516
0.816237
-0.872889
0.944501
-0.88785
2.03089
0.00484091
-0.171732
-0.0279765
-0.177374
0.00564218
1.01555
-0.0710457
-0.0755973
1.09114
-1.0967
1.02111
-0.910737
-0.418791
-0.280467
0.024555
0.0132289
-0.0377839
0.0341684
0.0776829
0.0276316
-0.105315
0.0197216
0.032644
-0.0523656
0.114574
0.0341701
-0.00588525
-0.135233
0.0238492
0.111384
-2.26672
1.02265
-1.21604
-0.814746
2.03079
0.11014
-2.04868
1.05563
-1.85363
0.797995
-0.6118
1.66743
-1.48148
0.869678
1.2548
0.31764
-0.226673
1.53599
0.19707
-1.73306
-2.0062
-0.0424839
0.089469
-0.0802444
-0.012808
-0.00198797
0.0147959
-0.0116674
-0.00114058
-0.0133767
0.0127717
0.00060492
-0.000216625
-0.0114507
-0.00926385
0.00904723
-0.0158875
-1.84883
-0.288792
2.13763
-2.6613
0.995488
1.66581
0.734031
-2.58286
-1.92727
-1.12104
1.9851
-0.0597445
0.336354
0.0221558
-0.00344136
0.318413
1.31498
-1.63339
-0.0135252
0.0159746
-0.247746
0.037376
0.570431
1.97474
-2.54517
-0.00689673
-1.92172
1.96649
-0.0447775
1.38293
-1.98999
0.00270914
0.0255033
-1.96649
2.52333
-0.0961843
-2.08026
2.04613
0.034126
-2.08026
0.00271868
1.87101
-1.45647
-0.414541
1.87101
0.0167563
-0.0140376
-0.00209739
0.789518
-1.66697
2.45649
-1.66697
-1.75511
1.46631
-1.75511
0.427917
-0.458115
0.454795
-0.0268782
0.00360731
-0.0205163
0.016909
2.15735
-1.58692
2.76584
0.0095966
0.00145674
2.16003
-0.609724
1.11459
1.04543
-0.0420569
0.00144011
0.00439285
0.0151734
-0.0115661
0.00488644
-0.00344633
0.0095966
-0.0170567
0.0143597
2.2415
-2.26174
0.16313
0.780935
1.78914
0.460847
1.07143
-1.53228
-1.55479
-0.230255
-0.0174908
1.95569
-0.88426
-0.125524
2.21147
-0.477266
-0.0373567
0.0231033
0.0142534
0.13699
-2.30179
-1.82769
1.96468
1.59009
0.0626854
-0.0824322
0.0197468
-0.017635
-0.271269
0.0735609
0.197708
-2.046
-0.0342585
0.362447
-0.170202
-0.192245
-0.0213052
0.00721352
0.0140917
0.699655
-2.55841
1.72069
0.505069
0.080409
-0.0177236
0.00669806
0.0274721
-0.00906026
-0.00613768
0.0151979
1.89384
-2.27908
0.385238
0.0435904
-0.0167191
-0.000746216
0.00537583
-0.0165856
0.0112097
0.100093
0.594708
-0.621586
-0.123163
-0.148106
0.021978
2.33058
-0.634834
-0.214956
0.849789
0.0494962
-0.00426389
-0.0452324
2.44261
2.21196
0.230654
-0.0269061
-0.62556
-0.00927341
1.55156
0.0385314
0.00337281
-0.0715591
0.0681862
0.0202685
-0.000796222
1.10927
-0.548508
1.95786
0.020826
-0.0241533
0.0189777
-0.0366127
0.998618
-0.104173
0.00377602
0.00845459
-0.0122306
0.0488513
-0.0190924
-0.029759
-0.884262
-1.6122
2.41019
-1.6122
-1.15198
0.698276
-0.104634
0.594722
-0.404442
-0.190281
0.00369087
0.00696754
0.258892
-0.230033
-0.00923795
0.516783
0.0187873
-0.032005
0.0132177
0.00105602
-0.0047402
0.00368418
0.014287
-0.010511
0.0169767
0.0710147
-0.0879914
0.0156824
-0.0156824
0.0213118
-0.00562931
0.0146262
0.00668552
0.0132897
-0.0132897
-0.00723628
-0.00982688
0.764328
1.67753
1.11922
1.0184
-1.41513
-1.41513
-1.47986
-1.06531
0.0232354
-0.00224154
-0.0209939
-0.0111705
0.0299578
-1.21775
-0.369616
1.58737
-2.04613
1.43641
0.012065
-0.0159294
-0.00460276
0.105273
-0.10067
-0.0222411
-0.00856723
-0.0142286
-0.00165888
0.0201995
0.027979
-0.0481785
-0.0124358
0.0196459
-0.00721008
0.00285732
-0.0152932
0.0397391
-0.0163514
0.0148404
0.00151099
0.0159959
-0.0131386
-1.04136
-0.691697
-0.0122555
0.00424473
0.0175414
0.00622084
0.0134251
-0.00124257
0.0244374
-0.0206988
-0.00373863
-1.91595
1.3333
0.58265
0.00331282
-0.177307
-1.73864
-1.66378
2.44472
-0.0614229
0.0361204
0.0253025
0.00768898
-0.0147352
0.00704622
0.0113701
-0.00368111
-0.0184837
-0.0114716
0.0299553
0.00870633
-0.02719
0.910961
0.0251414
0.344461
1.61123
-1.48142
-0.0665199
0.087587
-0.0210671
-0.0412234
0.0168492
0.0152712
-0.0321204
-0.00667063
0.00219627
-0.0937109
-0.85696
0.950671
0.0737384
-1.00661
0.912903
0.122908
-0.0604833
-0.0624252
-0.0135856
0.0135856
-0.00398904
-0.010258
-0.000464844
0.0107229
-0.463684
-0.750233
-1.69671
0.00420526
-0.00420526
-1.04193
-0.654772
0.0955901
-0.0665902
0.00610697
0.0263403
-0.0131114
0.021886
0.0044543
0.0102027
-0.0108659
0.0448282
-0.100205
0.20576
1.92645
-0.0169345
0.0236326
-0.0103666
0.0165875
0.0139475
0.000297085
0.00876804
-0.00906512
-2.65375
1.80143
-1.86787
-0.00635805
-0.0310702
0.0360971
0.703306
0.012386
0.0131554
-0.0255414
-0.0164061
-0.00955858
0.0259647
0.0222181
-0.0262251
0.00400704
0.0265569
-0.0329149
0.00232079
-0.0121739
0.00985311
-0.00408817
-0.00091506
0.00500323
-1.95998
0.91804
-0.00236521
-0.0241891
0.045457
-0.0212679
-0.040383
0.016194
-0.0208806
0.034272
0.334356
-0.192953
-1.76709
1.64156
-1.88524
0.118154
1.57053
-1.2399
-0.330628
1.05692
0.0237234
0.0740873
-0.0978107
-0.00408817
-1.66696
1.00526
0.661694
-0.48817
-0.0197141
0.0220348
0.00849962
-0.0249057
0.324941
1.34249
-0.00119821
-0.00489168
0.00608988
0.0274131
-0.00543505
0.00489168
-0.0045946
-1.30642
1.63136
-0.00574893
0.00574895
-1.79459
0.0380785
0.0768479
0.0633018
-0.0252233
-0.0177056
0.0514069
-0.0353341
-0.008429
0.00711216
0.242288
-0.123956
-0.118332
0.0142296
0.106932
0.34803
0.00268476
-0.0380189
0.008429
-0.000332499
-0.00809649
-0.0207233
0.300095
-1.18794
-0.43123
0.538162
-0.0135252
0.152514
-0.00679192
-0.012432
-0.0183241
0.00092801
0.0173961
0.0219127
-0.00443334
0.0136
-0.0167203
0.0031203
0.0107519
-0.0144858
0.00373391
0.0105691
0.000182801
0.0105007
0.00430168
-0.00398505
0.0491344
-0.0643141
0.0151797
0.0419447
0.00941931
0.0231695
-0.0325889
0.333855
0.0112697
-0.0132728
0.00200306
-0.00173002
-2.4093
-0.873406
1.17088
-0.297473
-0.288173
-0.361794
-0.821224
-0.180756
0.460919
-0.0193549
0.0183183
0.00103661
-2.30928
0.0104786
0.277106
-0.457862
-1.82769
0.00489168
-0.00706431
0.040696
-0.0336317
-0.0782076
0.00378132
0.0416756
-0.0814838
0.00737305
-0.03405
0.160175
-0.339512
-0.0248709
0.0226018
0.00226921
-0.00955204
-0.0415733
0.0558267
0.0588721
0.0287149
0.508204
-0.0622904
-0.00753708
-0.0406414
0.00358412
0.0155442
-0.0146755
0.0182596
-0.0551472
0.0791921
-0.0240449
-0.00892936
0.168572
-0.362269
-0.0640766
0.327569
-1.67963
0.558587
-1.77932
-0.824304
0.899375
-0.0750716
0.421447
0.191038
-0.612486
-2.27908
0.0129988
-0.0115012
-0.00149752
1.96468
-0.440477
-0.408066
-2.81756
2.4095
0.209576
2.15735
0.0178259
-0.0377371
0.0199113
0.0332731
-0.0154472
-0.0836842
0.00125196
-0.001323
0.0143744
-0.0130514
0.118929
0.307623
0.0168912
-0.0183785
-0.248938
0.367867
0.262193
-0.27376
0.0115666
0.037219
0.0382929
-0.0755119
-0.0578813
-1.45647
1.1804
1.58692
1.43641
1.46631
0.0100243
0.00549462
-0.0155189
0.0134044
-0.0219716
-0.918218
-0.00364281
-0.0315537
-0.00615661
0.0377103
0.000186136
0.0412438
-0.440418
-0.4778
0.00405107
-0.0164931
0.012442
-0.0060053
0.0160296
-0.011118
-0.019757
0.019757
-0.018829
-0.0157186
0.0117336
-0.010224
-0.0143257
0.144796
-0.057165
1.33123
-0.0688658
0.267727
-1.15199
-0.0472761
0.0337278
0.0135483
1.38576
-1.11803
0.00184492
-0.0175347
0.0156898
0.0120872
-0.0102423
0.0213298
-0.0104501
-0.0411091
-0.00616694
-0.0121658
0.0164059
0.0200644
-0.0142806
0.00136509
0.0199647
0.00993784
-0.00993781
0.00863327
0.0114311
-0.104846
-0.00807193
-0.0289661
0.0208942
0.23609
0.613699
0.00816966
-0.0192876
0.0186923
0.00255571
-0.021248
0.0173414
-0.0173414
0.448236
-0.372988
0.00165899
0.00268722
0.0134065
-0.0301242
0.0167177
-0.000554603
-0.0131219
0.0768686
-0.0468434
-0.00407067
0.00472027
-0.000649605
-0.0114796
0.00629949
0.00430682
0.0154502
-0.0211283
0.0080064
0.0127346
0.00629948
-0.0214795
0.0685891
-0.0471096
0.517092
-0.470918
-0.0461732
-0.0414488
-0.101724
0.657537
0.01742
-0.00857252
-0.00884749
-0.00581806
-0.0112836
0.0171016
-0.181837
-0.884
0.733799
0.150201
0.011602
0.0213251
-0.99877
0.0916738
0.0271679
-0.0648352
0.00769747
-0.0169108
-0.00769747
0.00769747
-0.0154957
0.00421209
0.029166
-0.00506106
-0.0241049
0.0196124
-0.0607215
-0.0176543
-0.0016333
0.00863272
-0.0120559
0.068676
-0.0566201
-0.0130107
-0.0140764
0.0169471
-0.0230341
0.00537977
0.0025706
-0.00842545
0.00585485
0.0758953
-0.00405789
-0.0129173
0.0169752
-1.13372
-0.856271
-0.0384793
0.00692561
-0.027092
-0.253113
0.0330853
0.220028
-0.00902918
0.007025
-0.00976866
0.00506584
-0.00393288
-0.00583578
0.00983128
-0.00960088
-0.000230393
0.0866888
0.905574
-0.00994856
-0.0111797
0.0283877
-0.224726
-0.0867125
0.140261
-0.0535485
0.0483981
0.0141896
0.018452
-0.860811
0.643102
0.21771
0.0146604
-0.0104157
0.0148789
-0.000218487
-0.00948118
-0.85133
-0.0095368
0.0095368
-0.100773
0.608233
-0.507459
0.661429
-0.762202
0.00136263
0.728987
-0.0675576
0.0211076
-0.020474
-0.000633629
0.288569
-0.251179
0.21378
0.0373989
0.133477
-0.082429
0.00741618
-0.00773999
-0.492244
0.411443
-0.575799
1.91829
1.83439
0.289405
1.83439
0.594595
-0.0147302
0.014032
-0.00827431
-0.00645587
0.00702487
-0.00793227
0.000258776
0.00767349
-0.00244879
0.0160488
-0.379028
-0.0141725
0.393201
0.129176
0.0118328
-0.0142816
-0.108301
0.049487
-0.136199
0.00656624
0.00102893
-0.00759517
-0.0185211
-0.00952888
-0.00994826
0.0194771
0.0460421
-0.124523
-0.00803987
0.0138377
-0.00579786
1.29656
0.334799
-0.0216458
-0.00418891
-0.00429969
0.00190476
-0.00983702
-0.163726
-0.00193009
0.0510645
0.0068346
0.00350385
-0.0103384
0.0112942
-0.0044596
-0.0119704
-0.00635706
0.0437536
1.2528
-0.268572
-0.107672
-0.160901
0.0420825
-0.0574227
0.0153402
0.123225
-0.116453
-0.0210306
0.0192014
0.0624364
0.0111206
-0.073557
-0.0192779
-0.0117337
0.0136384
0.0129828
-0.0042148
-0.0037035
0.0358773
-0.327945
0.0178392
-0.00238895
-0.0154502
-0.481962
-0.343305
0.179929
2.15065
-0.496135
2.33727
2.33727
0.556429
0.464678
-0.760516
1.31694
-0.0720275
0.0178392
0.0441995
1.27078
-0.0689972
0.0226977
0.00449998
-0.0334256
-0.0355716
0.00581972
-0.0119574
-0.00105484
0.0134056
-0.0123508
0.0106787
0.0963688
-0.0957744
-0.000594324
0.0384851
0.0578837
-0.780125
-0.40575
0.556388
1.05964
-0.0789321
0.0205459
-0.00547481
-0.0150711
-0.149711
0.0183871
-0.182438
-0.0926034
-0.34871
0.0332831
0.0100856
0.0104602
-0.226125
-0.122585
-0.109777
-0.174568
0.284345
-0.0153606
-0.881727
0.0955844
0.786142
0.0204526
-0.0159746
-0.872855
-0.00887123
-0.166235
-0.00971954
0.00852909
0.00119045
0.0103934
0.0100593
0.0707155
-0.0582259
-0.332586
-0.00757544
-0.0021441
-0.334368
-0.0904553
0.424823
0.0254244
-0.018196
-0.00821661
0.0103934
-0.180581
0.0255846
-0.528357
-0.643126
-0.00510287
-0.0122287
0.0173315
-0.146968
0.200745
-0.0537771
0.00241163
-0.0146403
0.0191192
-0.0211633
0.0243371
-0.21949
0.0725218
0.00581972
-0.0183434
0.0252367
-0.0068934
0.408599
0.00153298
0.00737273
-0.0089057
-1.59252
1.06416
0.0130778
-0.0115448
0.113941
-0.45055
0.00278517
0.0102926
0.0490966
-0.0476435
-0.00145306
0.0154354
0.00411474
-0.0195502
0.000648823
0.0147866
0.0170681
-0.00128718
0.0849516
-0.0868817
0.0793434
-0.0109608
0.00136253
0.00959823
-0.0155
0.0517102
-0.0650017
-1.08698
-0.013328
0.0129955
-1.14074
-1.67682
1.30398
-1.59728
-0.00106695
0.00809649
-0.00702953
-0.00475841
0.00512017
-0.000361755
0.0201459
-0.0104638
-0.00286416
0.0150481
-0.0215859
0.00653782
-0.0307207
0.00226423
0.0149965
-0.0127323
-0.000591754
-0.0136312
-0.0115525
1.17482
-0.0172888
-0.0186743
-0.122582
-0.317895
0.0562803
-0.0141978
0.39451
-1.00752
0.485238
0.00937747
1.2386
0.0495886
-1.28819
0.0883558
-1.96874
1.5387
0.00531636
0.0175911
-0.00475841
-0.0202523
0.0114048
-0.028998
-0.948497
-0.00409088
2.49245
-0.0335557
-0.00433016
0.0378859
0.0653255
0.0532697
-0.00419586
-0.0443875
-0.0411606
0.00106321
0.0124486
-0.0294723
0.00173188
0.0277404
0.00862996
0.0404667
0.322198
0.039611
-0.0227866
-0.0168245
-0.135917
-1.46765
0.723848
-1.50397
-0.00397448
0.0404076
-0.0125559
0.00968691
-0.00928434
0.0189713
0.915214
-0.793807
0.545284
-1.23698
-0.00548701
-0.00755344
0.0130404
0.00751174
0.0294679
0.0101431
0.000775835
0.0160787
-0.0153029
1.09537
0.0755125
0.877348
-0.0122336
0.0632981
0.689616
-0.0173766
0.0260065
-0.0446881
-0.000990346
-0.015326
0.0233351
0.00613278
0.0332998
-0.0263742
-0.0276611
0.957756
0.0138608
0.0138608
0.0284624
-0.0328454
0.0100589
0.0140062
-0.0092491
0.0106117
-0.00248808
0.0143834
-0.0118954
0.00425408
-0.305398
-0.578864
-0.0377558
0.0154913
-0.0111209
0.059519
-0.0261668
-0.0821337
-0.0333522
0.0139353
-0.00252031
0.0164556
-0.0058353
-0.0080175
0.0138528
-0.0170439
0.0145236
0.00179957
0.0122066
0.00298394
-0.0203605
0.0323352
-0.0018474
0.0158794
1.53278
0.250406
-2.25021
-2.24928
0.0172333
-0.0105477
0.00603973
-0.0163404
0.00928769
0.00705275
0.0473919
0.00939294
-2.9998
-0.930958
-0.0637596
-0.0260946
0.0081636
0.0218552
2.09136
0.0206316
0.00879971
0.00553479
0.0456676
0.0897097
-0.0436676
0.256573
0.911029
-0.86683
-0.0196076
0.0222924
-0.0154371
0.00191549
-0.00840392
0.00576127
-0.00384578
0.0100311
0.00150478
0.0100311
0.718926
0.0220272
-0.0147734
0.0049833
0.241127
-0.834084
0.673528
0.160557
-0.0100758
0.0141905
0.0337972
-0.0413343
0.00167685
-0.147495
-0.843566
-0.127219
0.065413
0.0618061
-0.213195
0.0142288
0.0331631
-0.00953998
-0.00978324
-0.0139559
-0.292148
0.385271
-0.0931232
0.0168271
-0.012531
0.0011682
-0.293316
-0.0190653
0.00615411
0.0129112
-0.00109738
0.0128907
-0.0103574
-0.00870786
-0.0119574
-0.0114548
-0.0917799
1.15585
-1.06407
-1.16153
1.06975
-0.0536582
0.087957
-0.235452
0.579037
-0.948653
-1.27854
-0.0234655
0.00935392
1.26865
0.0220876
-0.0127337
-0.00181664
0.0155271
-0.0137104
-0.020598
0.0187814
0.0248067
-0.0236465
-0.0011602
-0.00993784
-0.00629948
0.00934589
0.00248691
-0.0272411
0.317596
0.0163551
0.00845158
-0.0160703
-0.00512131
0.0211916
0.00126047
-0.0173308
0.0262846
-0.0110811
0.0541142
-0.0203864
-4.49281e-05
-0.0137104
-0.0159032
0.00837961
0.00752362
0.030895
-0.0399258
0.00686077
0.0472534
1.84996
1.83447
-1.57789
-0.654492
0.0124649
-0.0114283
0.00608988
0.0499217
0.00838969
-0.017674
0.0281956
-0.00269232
0.00818884
0.00786001
0.00342194
-0.400021
0.209741
1.89955
0.0305435
0.658659
0.00971709
0.00412063
-0.00361228
0.00913906
-0.0206187
2.36248
-0.151005
1.7077
0.0151475
-0.00371641
0.00743558
-0.00654247
0.0162596
-0.00489875
0.0183044
0.121334
-0.133555
0.00871957
-0.0028514
-0.00586817
-3.67712e-05
0.00875634
-0.00970714
0.00490348
0.00480366
0.00858816
-0.0105761
-0.0226423
0.0138491
-0.00975167
-0.00118349
-0.0065565
0.00418277
0.0029294
-0.00711216
-0.130357
0.011903
-0.00784027
-0.289053
-0.00516925
0.0185117
-0.00518647
0.0232164
0.0048718
0.00703118
1.96204
-0.00669948
-0.00680577
-0.0643323
-0.69787
0.413816
1.33186
0.581624
-0.57036
0.0165736
-0.0182325
0.234371
-0.501905
-1.65669
-0.0102802
-1.65669
0.586466
-0.0019424
-0.0115828
0.00407067
0.00145194
-0.183906
1.70011
-1.68456
0.30054
-0.00440628
0.00776081
-0.00436742
0.00559205
0.0104682
-0.0071163
0.00620124
-0.00804833
0.0137501
-0.000164474
-0.0115828
-0.356116
-1.27727
-1.38139
-0.0198526
0.0180052
0.00846232
0.0137501
-0.00507892
-0.014631
-0.00327133
-0.217754
0.310489
0.0083897
-0.00418988
-0.0145644
0.0138317
0.000732729
-0.00799233
0.0285552
-0.0476476
-0.00352724
0.053449
0.00232486
0.0147319
0.00259966
0.0243126
0.00261939
0.00950505
0.007025
-0.007025
0.0443353
0.408649
-0.499105
-0.120015
0.0391007
0.010012
-0.00192503
-0.000945053
0.0822671
-0.200599
-0.155494
-0.0133346
-0.102843
-0.00222178
0.00754344
0.172264
0.01001
-0.000632506
0.00732174
-0.00542271
0.20964
0.0115022
-0.0357881
0.444437
-0.543248
0.0851173
0.00418058
-0.107883
0.0399016
0.0679818
0.00788253
0.0103453
-0.0187148
0.00338883
-0.00436742
-0.01888
0.020761
-0.00637452
-0.0225916
-0.0138106
-0.00669707
0.00523865
0.00145842
0.00204614
-0.0611042
0.0197646
-0.00930533
0.0155439
-0.014939
-0.00142844
0.0109769
0.60758
-0.698085
0.0905053
-0.0318913
1.69054
0.268223
-0.00551686
-0.00118021
-0.0154764
0.00823375
0.00724265
-0.0155671
0.0794131
0.00194301
-0.0175101
-0.0118676
0.0119657
-0.119849
0.0105118
-0.00871221
0.013322
-0.0169648
-0.00434367
0.00949265
0.00416469
0.00157605
0.00415259
-0.00572864
0.00949265
0.00524391
-0.0133011
-0.0162059
0.00367489
-0.676133
-0.503637
-1.22199
-0.0843859
-0.00125429
-0.0149516
0.00887548
0.0016363
0.00274535
-0.00230094
-0.00481535
2.3813
-0.00944764
0.00854249
-0.00411542
0.00935407
0.0146759
-0.00435721
-0.00124886
0.0049617
-0.0049617
-0.0078716
0.00436742
0.00121389
-0.0055813
-2.06915e-05
0.00856318
0.277498
-0.0754151
-0.0116818
0.0961654
-0.0310703
-0.00591144
-0.177718
0.126939
-0.219082
-0.0195136
0.00180805
-0.0197122
0.000198618
0.0160013
1.03393
0.00337136
-0.0126093
-0.0154737
0.0733095
-0.00480762
0.0055813
-0.000773678
-0.00480762
0.00114017
0.00466701
-0.00580718
-0.00092478
-0.00266363
0.00358841
-0.890973
-0.140266
0.0447352
0.0175259
-0.0622611
-1.74724
-0.69032
0.0053401
-0.016349
0.0191625
0.0151095
0.00402755
-0.00814297
0.0522438
1.34006
-0.0032776
-0.0257952
0.0241391
0.00165614
0.00750452
-0.0216677
0.0115861
0.0100816
-0.00971696
0.0134808
-0.00376386
0.014074
0.00021983
-0.0114129
-0.00286869
-0.0111931
0.0239448
-0.00987499
-0.0107231
0.0118752
0.00525425
-0.0167259
0.00379334
0.0216311
0.716411
-0.018634
0.001691
0.016943
-0.00466947