/*--------------------------------*- C++ -*----------------------------------*\
| =========                 |                                                 |
| \\      /  F ield         | OpenFOAM: The Open Source CFD Toolbox           |
|  \\    /   O peration     | Version:  2206                                  |
|   \\  /    A nd           | Website:  www.openfoam.com                      |
|    \\/     M anipulation  |                                                 |
\*---------------------------------------------------------------------------*/
FoamFile
{
    version     2.0;
    format      ascii;
    arch        "LSB;label=32;scalar=64";
    class       volVectorField;
    location    "227";
    object      U;
}
// * * * * * * * * * * * * * * * * * * * * * * * * * * * * * * * * * * * * * //

dimensions      [0 1 -1 0 0 0 0];

internalField   nonuniform List<vector> 
2283
(
(10.0389 -0.0189122 1.71492e-18)
(9.75896 -0.00509127 5.49201e-17)
(6.03833 -1.0699 -5.0094e-18)
(6.28431 -1.08586 4.93172e-18)
(7.59103 -1.19203 0)
(7.62319 -1.27383 0)
(9.34198 -0.0621717 0)
(9.29598 -0.0143419 -1.3732e-18)
(3.70618 -0.68519 -1.96203e-18)
(19.1043 6.29753 0)
(16.871 4.13453 3.08594e-18)
(7.883 0.594778 -5.84007e-17)
(6.96206 0.62928 -6.33543e-18)
(9.66014 -0.954735 6.45225e-18)
(7.67602 0.446705 -1.14299e-17)
(8.82106 0.866165 0)
(9.00607 0.914078 2.14968e-18)
(7.30233 -0.543982 8.14459e-20)
(9.92589 0.00863344 0)
(7.24782 -1.22932 -5.7078e-18)
(8.60579 -1.35631 2.36424e-18)
(8.32742 -1.34143 0)
(9.04405 0.0242726 4.53212e-17)
(8.99356 0.0154834 -1.0788e-16)
(9.34604 -0.0385382 0)
(10.0863 0.00882599 6.27278e-17)
(8.80718 0.298104 0)
(10.9014 -0.999676 0)
(8.74203 0.270661 0)
(5.40533 -0.937866 1.67553e-18)
(3.63134 -0.619811 -5.486e-18)
(8.49111 0.0391978 0)
(8.43323 -0.0108928 -2.77704e-18)
(8.77289 0.0460199 -2.38936e-17)
(9.09876 0.011062 0)
(8.6683 -0.189886 -8.35071e-18)
(8.72076 -0.235051 0)
(8.89463 0.11023 1.42866e-17)
(8.92364 0.120533 -1.98216e-17)
(9.70338 -0.0123395 -9.94585e-17)
(6.53276 -0.0611354 1.12041e-16)
(9.53852 -1.04449 -9.13351e-18)
(8.82991 -1.41637 2.0814e-18)
(9.2745 -1.45257 -3.66621e-18)
(11.2028 -0.823598 4.99123e-18)
(11.2543 -0.955046 0)
(7.53782 -1.43649 3.02305e-18)
(5.82088 0.351052 -1.56926e-18)
(5.6321 0.147607 0)
(8.7617 -0.0883815 -6.53059e-19)
(7.60601 -1.19177 3.92208e-18)
(8.8099 -0.0953934 1.50492e-19)
(9.73021 -0.385378 5.84013e-19)
(10.5159 -1.2113 2.77497e-18)
(10.2613 0.0219617 -2.53073e-18)
(9.7442 -1.44488 -5.00323e-18)
(7.25987 -0.597572 0)
(7.29739 -0.227613 0)
(3.85734 -0.619977 0)
(10.1495 -0.0797333 2.70759e-17)
(7.23149 -0.297129 -8.35172e-18)
(11.0936 1.34391 -1.14035e-17)
(9.81323 -1.43012 0)
(11.2 -0.584107 1.4177e-17)
(3.71237 -0.667992 -1.64872e-18)
(9.82801 0.0778255 -1.00491e-17)
(10.0752 0.0652557 1.04296e-16)
(11.1448 -0.463831 0)
(7.46877 -1.25533 -2.13656e-18)
(9.02273 -1.43414 3.01231e-18)
(7.98447 -0.855758 -2.72173e-18)
(8.51578 -1.34486 -2.94525e-19)
(9.63688 1.65897 2.7383e-17)
(6.55806 -0.0113505 3.4437e-17)
(9.30689 -0.671435 -3.14103e-17)
(8.57001 -1.29401 0)
(8.84862 0.0266955 1.36151e-18)
(8.77368 0.107295 1.83706e-18)
(8.99562 0.103787 0)
(9.02503 0.078857 0)
(8.87037 -0.259722 1.22057e-18)
(8.89735 -0.281951 0)
(10.4443 -1.23067 -1.43386e-18)
(8.33162 -1.36727 5.17502e-20)
(3.65282 -0.836775 2.72278e-18)
(8.49733 -1.37627 2.33941e-19)
(11.4943 -1.44954 1.62119e-19)
(10.4497 -1.12665 0)
(10.1237 -1.48541 1.65229e-20)
(10.4241 -1.44378 1.88904e-18)
(9.50673 -1.13219 0)
(15.4317 8.60295 0)
(10.4015 -1.19076 0)
(8.86088 -0.203737 -1.217e-17)
(8.75638 -0.232773 0)
(8.68567 -0.0160078 1.27226e-17)
(9.65694 1.29281 -2.09852e-17)
(7.48479 -1.30778 2.84165e-18)
(8.85373 -0.0304064 -4.12418e-17)
(6.81631 -1.21027 -4.17029e-18)
(10.3488 1.01958 -2.23043e-17)
(9.9499 1.06121 4.16442e-17)
(10.3596 -0.298215 4.55556e-17)
(10.0152 -1.4489 0)
(5.74765 -0.984978 0)
(10.0646 6.97201 0)
(9.41113 -0.0447734 -1.35807e-16)
(9.47362 -0.00504685 2.22976e-18)
(7.10217 -1.13291 0)
(4.82376 -0.77766 0)
(9.16604 0.00692293 -6.72798e-17)
(8.61103 0.24859 1.33115e-17)
(8.68249 0.302596 -1.14033e-17)
(8.6583 -0.675613 -5.4104e-18)
(8.86497 -0.516759 -4.8734e-19)
(10.113 6.65083 3.22861e-19)
(7.16102 0.449563 1.29669e-17)
(9.46004 -0.000420938 -2.1297e-17)
(7.86427 -1.38662 0)
(8.60197 -0.432666 7.32561e-20)
(8.55974 -0.579832 -4.20137e-18)
(9.414 -1.44991 4.35733e-18)
(8.96787 0.270934 5.93748e-19)
(9.00614 0.296448 -4.57527e-18)
(3.66522 -0.694352 -3.80791e-18)
(8.35081 -1.21746 -1.55481e-17)
(9.57801 -1.12908 7.8182e-18)
(9.24552 -1.45633 0)
(7.85966 -1.30341 0)
(10.7008 -1.41097 2.20713e-18)
(8.26137 -1.09041 2.51414e-18)
(7.09995 -0.917167 0)
(4.72183 -0.598197 -1.90495e-18)
(9.36154 -0.469043 0)
(8.2588 -1.02623 0)
(7.40329 -0.973395 -1.13898e-18)
(9.0427 -0.159712 -3.10231e-17)
(9.05381 -0.179475 -6.95028e-18)
(7.24614 -1.24349 0)
(4.27644 -1.42978 3.07575e-18)
(7.14961 -0.280815 4.15952e-18)
(7.90366 -0.747305 1.13978e-17)
(7.28189 -0.920156 2.81244e-18)
(8.01801 -0.946385 0)
(7.38183 -0.32245 -3.61931e-18)
(5.30104 -1.10503 0)
(11.6609 -0.00474373 4.8087e-18)
(8.86811 0.137194 3.89825e-17)
(9.01104 -0.0288014 0)
(9.11634 -1.04144 1.66232e-17)
(8.99369 -0.0130045 3.15816e-17)
(7.48896 -0.277205 -2.39682e-18)
(8.4208 -0.37533 -3.38601e-17)
(8.4998 -0.462526 0)
(7.60024 -1.26811 -6.37958e-18)
(8.22279 -1.29004 0)
(6.80654 -1.19069 3.79048e-18)
(6.26981 -1.1168 0)
(8.12928 -1.02763 -2.96935e-18)
(7.62049 -1.29354 -3.62466e-18)
(7.12367 -0.0747293 -5.65805e-18)
(10.138 -0.0576155 -1.21652e-16)
(7.01205 0.0125144 1.03919e-17)
(11.6426 -1.21936 6.87803e-18)
(9.66922 0.344849 -2.04134e-17)
(11.2079 -1.04452 9.59376e-19)
(9.51101 0.347665 9.11296e-18)
(8.0487 -1.34421 4.86749e-18)
(9.22502 0.427298 -1.10717e-17)
(8.30367 -0.948457 2.56665e-18)
(5.86614 -1.03935 1.43451e-18)
(3.95834 -0.700718 0)
(5.82643 -1.27768 5.57217e-18)
(7.44868 -1.267 7.32791e-19)
(9.34483 -0.243689 0)
(8.44918 -0.207072 2.49649e-18)
(11.0672 -0.84472 4.47718e-18)
(10.9879 -0.975956 -8.69449e-18)
(7.74669 -1.28173 1.71748e-19)
(6.61504 -1.11041 -2.98602e-18)
(9.19461 -1.30295 -9.21898e-18)
(6.75468 4.09176 -1.03577e-17)
(4.24736 2.36004 3.39699e-17)
(9.37062 6.38341 -7.72382e-19)
(6.29903 -0.439185 8.57508e-18)
(6.10814 -0.5134 -4.08467e-18)
(7.55585 5.60891 1.80176e-18)
(5.50446 4.58452 -6.40898e-18)
(7.5761 -1.13765 -1.07041e-18)
(5.97924 1.58913 3.17116e-18)
(9.41168 -0.965299 3.74882e-18)
(8.6231 -0.0565157 0)
(9.11004 1.15382 6.4659e-18)
(9.11122 -0.902652 -2.19185e-17)
(5.92982 0.697092 -1.50265e-18)
(6.25271 0.679243 0)
(7.60466 -0.608204 6.38747e-18)
(7.60448 -0.525134 -1.0951e-17)
(10.5272 -1.2966 5.19215e-18)
(10.5604 -1.31492 -2.70804e-18)
(7.70889 -0.832371 -3.45008e-18)
(7.71261 -0.768276 7.19499e-18)
(5.99836 -0.995752 6.14637e-19)
(10.6477 -1.26595 -3.48513e-18)
(6.64891 -1.18679 -4.31578e-19)
(9.15814 5.30572 -6.78905e-18)
(16.181 3.45981 0)
(8.75187 4.85889 -4.38884e-19)
(7.53628 -0.462558 0)
(5.94605 2.41333 -6.8583e-18)
(9.0382 0.219466 0)
(9.01357 0.176899 0)
(4.47854 -0.898766 -9.54941e-19)
(7.93685 -0.998969 0)
(8.65829 -1.36132 0)
(8.10224 -0.995845 1.11688e-18)
(9.16559 -1.43263 -2.51102e-18)
(8.04729 -0.994762 2.55538e-18)
(9.6637 -1.30017 0)
(4.46549 -0.920672 -3.00569e-18)
(4.55906 -0.783166 0)
(7.93927 -0.435199 1.11212e-17)
(4.99765 -3.08927 1.54702e-17)
(8.36956 -1.33179 -1.34649e-18)
(7.95352 -1.37222 0)
(5.14982 -0.945005 -1.75876e-18)
(6.7187 -1.18866 -1.62056e-18)
(7.96025 -1.33748 4.02844e-18)
(6.40836 -1.12388 2.5057e-18)
(8.92168 0.612043 0)
(7.67247 -1.30792 0)
(5.26961 -1.26266 0)
(5.95082 -1.13256 -1.72266e-18)
(10.6647 -1.20478 -7.58278e-19)
(10.622 -1.14128 0)
(8.21507 3.90566 2.1756e-19)
(5.2712 -0.929417 5.18762e-18)
(7.89734 -0.00702025 -1.34114e-17)
(3.69328 -2.06321 -3.08766e-17)
(9.04399 0.638799 -3.19166e-18)
(9.76981 -0.719715 -3.67752e-18)
(8.02559 -1.0321 1.93511e-18)
(3.76419 -0.682129 -9.69745e-18)
(9.09941 0.778059 3.12159e-18)
(7.43307 -1.3163 5.64825e-18)
(7.976 0.139496 -1.1606e-18)
(8.31307 -1.37034 -1.19243e-18)
(8.55429 -1.38601 -2.45802e-18)
(8.09323 -0.565261 8.13968e-18)
(8.5462 0.502928 1.15168e-17)
(9.44486 0.00757268 0)
(5.49874 -0.944555 -9.90566e-18)
(5.39298 -0.829593 -7.94828e-18)
(9.65108 -0.804662 0)
(4.32162 -0.470411 8.56467e-18)
(8.51774 -1.37237 6.64979e-18)
(5.51836 -1.7433 -5.94064e-18)
(7.85526 -0.383207 4.47966e-19)
(7.90806 0.256221 2.11596e-17)
(12.1395 -1.2599 -1.07787e-18)
(11.8991 -1.33342 0)
(7.84046 -0.279047 -5.64785e-18)
(7.46019 -1.08524 2.3637e-18)
(5.20704 -0.8777 -1.64048e-18)
(7.24717 -0.942736 -6.1946e-18)
(9.85298 -1.33832 1.10283e-17)
(9.51649 -0.814906 -4.43804e-18)
(8.83266 -0.132893 0)
(7.69372 -1.29476 0)
(8.8503 -0.139968 0)
(7.74123 -0.233591 0)
(7.78921 -0.448804 9.31455e-18)
(7.52652 -0.133033 1.14631e-17)
(8.24068 -1.27108 -2.14185e-18)
(7.48095 -0.514899 0)
(8.27649 -1.19842 -5.99236e-19)
(7.21271 -1.25248 8.46985e-19)
(7.92589 -0.912023 -3.03718e-18)
(12.3542 1.57468 0)
(7.87614 -1.24936 4.14663e-18)
(7.96692 -0.953841 0)
(12.604 2.0136 2.92813e-17)
(9.12072 -1.4138 -1.50053e-18)
(3.79846 -0.6458 -8.83472e-19)
(7.62703 -1.32441 -2.70106e-18)
(8.26914 -0.50906 -4.65397e-18)
(11.0356 -0.533483 -1.01493e-17)
(8.72124 -1.36239 -3.03686e-18)
(8.58759 -1.37161 -1.4065e-18)
(6.25029 -0.21447 -1.06117e-17)
(6.38649 -0.270848 1.043e-17)
(8.56982 1.28111 -3.84104e-20)
(10.9769 -0.687203 1.03383e-17)
(8.14675 -1.40361 0)
(5.31935 -0.934853 2.9936e-18)
(7.21435 -1.21644 0)
(4.9689 -0.873976 0)
(9.30856 -1.46107 -2.17868e-18)
(8.08509 -0.741947 4.82854e-18)
(10.0495 -1.49701 0)
(7.69048 -1.40901 0)
(8.03217 -1.24276 0)
(8.01182 -1.23974 -1.0284e-19)
(8.79549 -0.271025 0)
(9.05115 -0.245982 1.87193e-17)
(8.6756 -0.166102 2.17612e-18)
(8.84303 -0.156697 0)
(7.42456 -0.488795 -9.23965e-19)
(9.06192 -1.33503 6.09308e-18)
(9.18752 -1.31925 0)
(8.5834 -0.362415 -3.36669e-18)
(9.62883 0.0195877 -5.76635e-17)
(8.318 -0.40204 2.76528e-18)
(8.28561 -0.628183 6.15802e-18)
(8.41673 -0.772197 -2.82902e-18)
(6.58995 -0.584116 5.67523e-18)
(6.80412 -0.603722 1.24711e-18)
(10.9353 -0.488778 1.53541e-17)
(9.43785 0.0215735 5.60197e-17)
(8.24666 -1.18734 0)
(7.2955 -0.983789 1.12941e-18)
(9.0891 -1.35357 -5.20295e-18)
(10.2665 -0.0145773 0)
(8.83572 -1.3633 0)
(7.54157 -1.09647 4.48312e-18)
(7.50775 -1.12488 0)
(7.62641 -1.05037 0)
(7.66605 -1.02697 1.68014e-18)
(10.9034 -0.321039 2.50637e-18)
(3.4524 -0.612305 4.50154e-18)
(10.3944 -0.92998 0)
(6.65932 -0.633525 -5.29216e-18)
(6.72519 -0.0946032 7.5288e-18)
(7.78923 -0.967593 -2.28374e-18)
(8.89982 0.107706 0)
(8.85904 0.1023 1.88293e-17)
(7.74721 -0.98675 2.79295e-18)
(9.8791 -1.41674 3.42528e-18)
(8.16061 1.79217 3.51749e-18)
(9.17618 -1.34046 1.00939e-17)
(9.3931 -0.311803 0)
(8.52618 -0.68125 -1.22042e-18)
(8.27737 -1.66652 1.70862e-17)
(5.54321 -1.15184 -2.61279e-17)
(8.49275 -0.830805 5.75347e-18)
(9.0813 -1.34584 -5.12801e-18)
(5.04456 -1.12611 -2.95615e-18)
(10.0264 -1.32536 -4.84952e-18)
(3.63737 -0.621067 2.10219e-18)
(8.66972 -1.41772 -7.54847e-18)
(8.1785 -1.28865 0)
(9.61203 -1.37706 0)
(7.4936 -0.606213 -2.95003e-18)
(9.3274 -0.38248 0)
(9.0328 0.0782633 -2.46546e-17)
(7.29063 -1.13836 0)
(8.30234 1.36587 -3.16115e-18)
(7.87424 -1.18883 0)
(7.82425 -1.1928 -4.07276e-19)
(7.91708 -1.15046 0)
(7.90585 -1.12492 0)
(7.24726 -1.2117 0)
(10.1915 -1.39329 -5.6585e-18)
(10.7301 -1.45528 8.20364e-18)
(9.20988 -0.156915 -3.69154e-18)
(9.11552 -1.33291 0)
(7.25033 0.90112 5.25198e-18)
(8.98322 -1.43655 4.74546e-21)
(13.32 -1.07404 2.17909e-17)
(6.72517 -1.12172 1.61533e-17)
(4.57503 -0.764749 -1.44444e-17)
(11.1065 -1.19483 3.21192e-18)
(9.14175 -0.152325 3.07092e-18)
(11.0813 -1.07727 0)
(10.1727 -1.29955 1.06367e-18)
(8.57779 7.02923e-05 9.12398e-18)
(9.12486 -0.178119 -2.10313e-17)
(11.5785 -1.39339 0)
(12.9964 -1.16777 3.27025e-18)
(14.7938 -0.986034 -2.26938e-17)
(11.2064 2.28426 -2.26442e-18)
(8.58021 -0.448206 0)
(9.09998 -0.0517928 0)
(9.93539 -0.0118657 7.39097e-19)
(9.58279 -0.00610004 1.04474e-18)
(10.8966 -1.12331 6.91878e-18)
(8.88588 -0.0699905 0)
(10.1056 -1.10918 7.28106e-18)
(10.1361 -1.04499 0)
(7.76289 -1.04767 0)
(7.80611 -1.02347 0)
(6.51355 1.50304 1.79452e-17)
(9.76294 -0.954998 2.48601e-18)
(10.1031 -1.3553 -1.43665e-18)
(11.0369 -1.23012 0)
(8.72433 -1.36475 -2.16072e-18)
(10.9611 -1.19554 -3.68191e-18)
(10.165 -1.25616 1.87132e-18)
(15.0253 -0.0463025 0)
(7.73517 -1.32589 -3.71341e-18)
(1.82129 0.227083 6.56183e-17)
(7.43187 -0.767779 1.74406e-18)
(7.46672 -0.721037 -6.916e-18)
(7.38022 -0.773918 0)
(2.06751 0.944849 4.1714e-18)
(7.34157 -0.743153 0)
(8.34838 -0.791516 0)
(7.67885 -1.27416 1.57144e-18)
(7.24436 -1.20141 -1.70902e-18)
(6.89358 -1.19473 9.12991e-19)
(8.27104 1.95497 -2.71088e-18)
(10.107 -1.2737 1.80656e-18)
(6.45934 0.0190839 6.14527e-18)
(8.2099 -0.445271 -2.05819e-17)
(7.63304 -0.972602 2.99678e-18)
(7.59003 -1.00524 0)
(9.14159 0.0348667 -2.23389e-17)
(7.71745 -0.92167 -5.16036e-18)
(7.75929 -0.900312 1.85256e-18)
(5.77171 -0.943678 0)
(6.87677 -0.303902 9.25468e-19)
(5.68948 -0.10097 2.54417e-17)
(8.34269 0.200343 0)
(10.2351 0.0577995 -1.47478e-17)
(2.85044 0.524514 -3.73194e-17)
(9.03369 0.0206629 1.85131e-17)
(9.05996 0.0304694 -4.16124e-17)
(8.83345 -0.0154443 -3.23386e-17)
(6.95343 -0.231472 -1.62866e-18)
(7.61446 -0.758783 0)
(8.81697 0.00816227 0)
(8.04784 -0.282759 3.26562e-18)
(8.12318 -0.462405 2.08521e-17)
(7.66616 -0.729385 7.19372e-18)
(8.50475 -0.00558041 0)
(8.99663 0.0493626 3.48821e-17)
(8.97341 0.0627076 3.51232e-17)
(8.96807 0.0380816 5.82393e-19)
(7.8484 -1.2786 -3.33943e-18)
(10.3461 -1.21714 -2.71727e-19)
(8.27815 -0.0271719 1.18344e-17)
(9.72839 0.0719884 -1.35539e-17)
(8.96811 0.00222773 0)
(7.84408 -1.40592 0)
(8.74875 0.571516 9.49481e-18)
(8.04434 -0.375069 0)
(7.87209 -0.932168 1.90169e-18)
(5.76851 -1.08143 0)
(4.6046 -0.715712 -6.76666e-19)
(8.26826 -0.755746 3.75962e-18)
(4.73723 -0.959687 -1.53097e-18)
(7.86216 -0.970065 -4.63735e-18)
(8.15022 0.829524 1.57684e-18)
(6.67806 1.27598 1.09716e-17)
(8.85379 -0.043214 -1.55773e-17)
(6.24672 0.995978 0)
(8.22308 -1.30925 1.14083e-18)
(7.15751 -0.798996 -1.44496e-18)
(8.88547 0.0152854 2.82739e-17)
(8.98647 0.0123371 0)
(9.39061 -0.030459 5.74895e-17)
(5.92023 0.940175 -1.00899e-17)
(6.03602 -1.07563 -3.04703e-20)
(8.79085 0.0547971 3.16664e-18)
(7.83509 -0.901908 -3.87832e-18)
(7.34038 -0.827081 0)
(6.64385 -1.15198 0)
(8.88556 -0.0358992 7.50535e-19)
(8.80938 -0.0778071 -1.1049e-17)
(8.93436 0.0342499 -2.30897e-18)
(8.99842 -0.0485736 7.49048e-19)
(4.04532 -0.72246 -5.58945e-18)
(11.2337 -1.275 4.47672e-19)
(8.88006 -0.0415788 -9.82292e-19)
(8.62441 -0.258768 0)
(8.66558 -0.158518 3.6876e-18)
(8.56989 -0.208352 0)
(8.64157 -0.331155 0)
(8.57723 -0.345362 0)
(4.99619 -0.875666 5.42596e-19)
(6.18873 -1.09213 1.25379e-18)
(9.18171 -0.0688702 0)
(6.51116 0.0270909 5.49036e-17)
(9.69566 -0.293146 -2.9212e-17)
(8.8831 0.112146 -1.29798e-17)
(8.8733 -0.045831 -1.73588e-17)
(6.42267 -1.14066 -9.70018e-19)
(8.58088 -1.04223 0)
(9.86038 -0.0263176 -5.40045e-17)
(5.24111 0.206486 -1.51586e-17)
(8.726 -0.0915033 -8.48032e-18)
(8.67381 -0.0874573 9.56262e-18)
(8.86129 -0.0644531 7.43859e-18)
(8.98117 -0.0356049 7.3389e-18)
(8.87836 -0.0507316 -1.53713e-17)
(8.85719 -0.0395924 3.20066e-17)
(9.332 -1.42447 -3.44437e-18)
(9.06497 0.0285685 -1.9901e-17)
(7.61629 -1.15023 -4.07897e-18)
(8.86146 -0.0352812 -6.52009e-17)
(9.88304 -1.3607 1.2877e-18)
(10.1538 -0.841438 0)
(8.92772 0.126976 1.49325e-17)
(8.93027 0.131279 -3.19897e-18)
(9.00686 -1.37856 -2.81485e-20)
(10.1778 -0.906719 0)
(11.8606 0.327872 0)
(10.1438 0.110736 -6.94074e-17)
(9.23128 0.0206962 -1.99867e-17)
(9.63413 0.0621753 0)
(8.39519 0.149109 1.23386e-17)
(8.456 -0.384011 0)
(9.14303 0.0424452 4.07507e-17)
(9.05692 0.0838958 -6.81608e-17)
(9.19727 0.0785728 5.23369e-17)
(8.75196 -0.115399 5.53513e-19)
(8.81466 -0.0586264 -7.87444e-19)
(11.8086 0.0609004 -1.4303e-17)
(11.3388 -0.134691 -1.04483e-17)
(11.1922 -0.252249 1.02625e-17)
(11.1944 0.266278 -3.60263e-17)
(11.4045 0.113581 9.95087e-18)
(9.08544 0.0782126 2.92711e-17)
(9.00221 0.055928 -3.67118e-17)
(8.86509 0.270504 0)
(8.83274 -0.424079 2.60244e-17)
(8.90039 0.0575655 2.17174e-17)
(8.87994 -0.471981 4.1775e-18)
(9.02738 -0.091069 -2.77795e-17)
(9.03578 -0.0735951 2.56359e-17)
(9.68409 0.058092 -1.36966e-17)
(8.36468 0.0508458 0)
(3.51894 -0.767862 -1.09316e-18)
(8.34255 0.712514 -1.28537e-17)
(8.52811 0.813957 8.12932e-18)
(9.08396 -0.0567675 -2.39708e-17)
(9.02397 -0.0661537 0)
(8.99275 -0.114477 0)
(8.92406 -0.00762142 1.85446e-17)
(9.02006 -0.123524 3.63643e-19)
(11.9625 -0.114652 -3.30327e-18)
(11.8278 -0.13994 9.17198e-18)
(10.5336 0.018942 -6.99443e-18)
(10.6784 -0.858214 -5.0551e-18)
(10.3986 -0.0515529 2.7998e-17)
(8.31765 -1.16156 2.52377e-19)
(10.0598 -0.311023 0)
(8.88606 0.082389 1.47086e-19)
(9.68698 -0.0496157 2.20013e-17)
(9.36506 -0.00921553 -5.52437e-18)
(9.05639 -0.0243424 -1.76791e-17)
(8.92662 0.0615367 -2.09569e-17)
(10.06 -0.0779559 5.4684e-18)
(9.93605 -0.0638331 -7.70942e-18)
(9.52961 -0.0108768 0)
(9.64443 -0.010815 5.48181e-18)
(9.424 -0.0277822 -9.59415e-18)
(10.0134 0.113868 -6.86982e-18)
(9.93883 0.0551235 3.54174e-18)
(8.96256 0.0595201 5.45888e-17)
(7.74387 -0.0121188 0)
(7.70561 -1.30726 1.46747e-18)
(8.00319 -1.33219 0)
(8.00582 -1.26326 -9.84551e-19)
(7.79068 -1.31253 4.57951e-19)
(7.31709 -1.24586 -5.78999e-19)
(8.01181 -1.25854 1.09925e-19)
(9.98912 -0.124664 5.44152e-17)
(9.3655 -0.0803589 -5.33483e-17)
(10.1723 -0.0780373 -4.61351e-17)
(9.53271 -0.0579921 0)
(10.0652 -0.221455 4.60755e-17)
(8.72153 -0.369435 0)
(7.95458 -1.02447 0)
(8.85722 0.0453363 -1.68229e-17)
(7.08559 -1.25239 8.0881e-18)
(8.40102 0.325688 -4.64468e-18)
(10.059 -0.442658 0)
(7.37695 -0.40704 7.64879e-18)
(9.73361 0.0352359 3.33712e-18)
(6.62137 0.00517523 0)
(8.62613 0.593216 -1.36015e-17)
(9.56784 -0.0754511 7.11332e-17)
(7.98478 -1.038 3.09285e-18)
(7.37496 -0.570143 6.88199e-18)
(9.01059 0.00648151 3.86755e-17)
(8.44065 -0.676519 -1.60721e-18)
(6.91682 -0.145235 0)
(9.67523 0.0484061 3.09517e-18)
(6.61719 -0.00970761 0)
(7.52514 -1.15189 1.71921e-18)
(10.0537 0.0569927 -6.27147e-17)
(6.92264 0.120852 0)
(7.50298 -1.17542 2.33108e-18)
(8.38141 -0.613063 0)
(10.0711 -0.100749 -8.19494e-18)
(8.83104 0.633931 -7.61889e-19)
(8.79535 -0.0178122 2.45894e-17)
(6.71623 0.179141 -3.28468e-17)
(9.18534 -0.0917147 0)
(6.439 0.0134927 1.20333e-16)
(8.56116 -0.153108 -9.57274e-18)
(8.59202 -0.156421 0)
(7.14516 -0.709239 0)
(10.3013 -0.0721748 2.57099e-16)
(10.0616 -0.181147 -4.65755e-17)
(3.716 -0.127157 -4.37118e-18)
(9.99892 0.14183 9.1153e-17)
(10.174 0.314498 2.6383e-17)
(8.63048 -0.1919 0)
(6.17177 -1.0502 0)
(7.0725 -0.762713 0)
(5.25034 -0.902638 0)
(2.55981 -0.151061 0)
(8.15347 -1.33273 0)
(8.80978 3.1372e-05 6.90711e-19)
(8.94242 0.0434801 0)
(8.98395 0.0284064 -1.96103e-17)
(8.93082 -0.0236462 -1.33495e-18)
(8.90934 -0.113868 0)
(8.50922 0.330679 0)
(9.19001 0.00297482 2.04444e-17)
(8.9072 -0.023804 2.29102e-17)
(9.92203 0.000600982 0)
(8.71946 -0.118925 6.85489e-18)
(8.97605 -0.0567982 1.97899e-18)
(10.5206 -1.00257 -1.72135e-18)
(10.1013 0.0331286 -5.63791e-18)
(9.42992 -0.0277997 6.44575e-18)
(8.88706 0.0143925 3.08634e-17)
(10.1766 -0.601193 -7.7717e-18)
(10.6055 -0.976046 -5.45017e-18)
(10.0931 0.46135 -1.16087e-17)
(9.79516 -0.0613793 0)
(9.56413 -0.309182 -1.20083e-17)
(6.78742 -0.950796 2.6106e-18)
(8.97087 0.00200032 8.00842e-17)
(9.00842 0.0205879 -8.20321e-17)
(10.1465 -0.683731 -4.25915e-18)
(8.36641 -1.18212 -2.30388e-18)
(8.13048 -1.33835 1.09947e-20)
(10.1402 0.041192 9.51065e-17)
(10.4381 -1.07783 2.92194e-18)
(6.40472 2.69896 2.71551e-18)
(6.81211 -0.837526 0)
(9.48167 -0.349133 -5.02598e-19)
(8.5945 -0.119757 0)
(8.62837 -0.119564 0)
(9.94907 0.581248 -1.70744e-17)
(8.2776 -1.2455 4.44337e-18)
(9.53198 -0.165001 -2.75632e-17)
(9.02671 0.175737 1.44453e-17)
(8.51904 -1.079 -4.539e-18)
(8.86802 -0.00921168 0)
(8.99391 0.000464722 -1.47049e-17)
(8.08225 -1.34389 -1.3547e-18)
(9.02192 0.195958 9.26401e-19)
(8.90416 0.0191441 0)
(9.22729 -1.23581 -6.45379e-18)
(7.27885 -0.664406 6.96107e-18)
(8.99965 0.135894 3.35523e-17)
(8.90083 0.0163968 -2.26132e-17)
(9.73323 -1.26425 1.83559e-18)
(10.6136 -1.01746 3.62335e-18)
(8.91462 0.113161 0)
(8.65572 -1.38497 1.60893e-18)
(7.2298 0.199225 0)
(8.97641 0.130073 0)
(8.68052 -0.0239282 6.34295e-18)
(6.68307 0.212132 0)
(8.69841 0.0639924 -5.63464e-18)
(10.5565 1.46477 8.19612e-18)
(8.6133 -0.313087 3.42174e-18)
(8.11156 -1.34142 0)
(8.55195 -0.280404 8.16579e-18)
(8.68221 -0.21046 -1.20324e-17)
(8.50406 -1.3807 4.7963e-19)
(8.87885 -0.231628 -1.22889e-18)
(9.7704 -1.31903 0)
(5.09242 -0.927185 -2.12723e-18)
(8.9956 -1.40995 -9.5762e-19)
(10.4649 -0.41064 0)
(4.65921 -0.87934 -1.10712e-17)
(6.11693 -0.990996 6.83513e-18)
(6.41423 -1.19873 -1.0565e-17)
(4.92775 -0.916553 0)
(11.2563 7.33755 1.35424e-17)
(9.46576 0.0893898 0)
(10.2207 -0.296345 0)
(9.26608 0.0406951 7.06317e-18)
(6.15657 -0.0201007 0)
(9.79864 -0.458288 6.03186e-17)
(4.39448 -0.688754 1.86084e-17)
(9.53492 -1.38195 -3.52423e-18)
(9.65232 -1.35474 0)
(8.86465 -0.0766818 -2.66242e-17)
(9.27932 0.0531626 -4.75541e-17)
(9.54178 -1.37631 1.12328e-18)
(6.72871 -0.938456 5.44073e-18)
(10.2774 -0.245482 1.34727e-17)
(10.1476 -0.182073 -1.93632e-17)
(9.14011 -1.35077 2.69177e-18)
(7.99188 -1.27179 1.80775e-18)
(9.92228 -1.10924 0)
(7.11843 -0.956343 2.3423e-18)
(7.03208 -0.97895 7.63372e-19)
(7.22123 0.00672102 1.32677e-17)
(5.6484 -0.369098 4.52397e-18)
(8.63279 -0.0264161 -6.63253e-18)
(6.94379 -1.00606 6.48381e-18)
(9.87485 0.161401 -1.09036e-16)
(9.11861 0.0699448 4.41771e-17)
(7.10264 -1.22136 8.34842e-18)
(7.93966 -1.29913 0)
(7.12628 -0.987552 0)
(6.92934 -1.19242 7.85239e-19)
(9.26027 -1.34124 -3.49242e-18)
(9.06955 0.0460188 2.32402e-17)
(7.98838 -1.29205 -1.59822e-18)
(9.06556 0.0423352 -5.20875e-17)
(8.90129 -0.0802591 2.08037e-17)
(9.86842 -1.06588 -1.54985e-17)
(8.53103 -1.37179 -1.58299e-18)
(8.20652 -1.35795 0)
(9.99061 -1.28629 0)
(10.0486 -1.24477 1.94165e-18)
(9.02314 -0.0543335 -3.59024e-17)
(9.97181 -1.327 0)
(8.55264 -1.08166 2.10875e-18)
(8.8942 -0.0417892 -1.20498e-17)
(8.86627 -0.0329688 1.30296e-17)
(7.57352 5.99255 4.59831e-18)
(10.0024 -0.895241 0)
(9.94403 -1.05297 0)
(9.8127 -1.20009 0)
(10.0661 -0.828123 0)
(9.28829 -1.33668 0)
(8.81707 0.0761069 1.94757e-18)
(10.0563 -0.757551 0)
(8.92152 0.101469 -5.31375e-18)
(8.89414 -1.19805 -2.33637e-18)
(3.28029 -0.376851 0)
(4.47258 -0.431765 -1.3797e-17)
(7.25215 -1.26109 0)
(8.98623 0.0303126 0)
(9.34171 0.0254042 0)
(3.51191 -0.612779 5.66716e-18)
(9.44999 0.0295398 -2.70403e-17)
(8.95572 -0.972525 -3.62512e-18)
(8.72084 -0.815287 1.23393e-18)
(11.9792 -0.413117 2.32338e-18)
(11.7824 -0.503482 6.35937e-18)
(7.25128 -1.23299 0)
(9.83908 -1.15577 0)
(9.37512 -0.930815 5.5402e-18)
(8.85525 0.0279137 0)
(8.95686 0.0271322 1.00254e-16)
(8.37066 -1.23839 0)
(7.04701 -0.971721 0)
(9.39129 -1.06168 0)
(6.09228 -1.02671 1.04194e-18)
(9.05655 -0.00395986 3.28866e-17)
(9.01706 -0.021142 0)
(8.59019 -1.10072 -7.15183e-19)
(9.74332 -1.23206 4.74212e-18)
(9.00589 0.00354556 0)
(7.78104 -1.31688 1.88277e-18)
(12.0537 -0.823527 -5.11925e-18)
(8.4414 -1.27837 1.24535e-18)
(9.36405 -1.3673 1.76063e-18)
(8.70676 -1.11008 0)
(10.6002 -1.48791 0)
(5.47433 -0.96614 -3.32459e-18)
(9.02128 0.0056789 2.35513e-17)
(6.46426 0.832987 -5.77969e-19)
(6.93879 -0.955762 6.30951e-18)
(7.73481 -0.638284 7.58921e-18)
(7.73574 -0.578001 2.56528e-18)
(7.67377 -0.515757 5.75178e-18)
(11.7683 -0.704197 4.22518e-19)
(8.68013 0.366609 0)
(4.92444 -0.891688 0)
(9.22641 0.00739998 2.05886e-17)
(9.06857 0.0224578 -1.93574e-17)
(9.05854 0.0152136 0)
(9.27517 -0.0439047 2.83422e-17)
(9.31216 -0.0512565 2.5309e-17)
(10.6458 -0.211968 0)
(3.52418 -0.624217 0)
(8.86899 -0.0392374 -1.87662e-18)
(8.58149 0.397113 0)
(8.89745 -0.0513623 1.44597e-17)
(10.9653 -1.41964 0)
(8.39856 -1.33018 -9.94502e-19)
(9.8848 -0.0341983 5.70503e-17)
(5.46355 -1.09296 -6.21875e-18)
(8.2942 -1.27106 -1.10464e-18)
(5.07465 -0.846111 1.77264e-18)
(9.41894 0.0529263 0)
(6.57609 4.74409 1.78021e-18)
(9.09541 -0.0264869 5.55939e-19)
(11.1876 0.882943 3.30912e-17)
(11.6276 0.750381 0)
(11.1977 -1.37705 2.37722e-18)
(11.682 0.452338 0)
(8.5107 -1.16271 3.7363e-18)
(7.82452 -1.1345 0)
(8.08981 -0.525225 1.31031e-19)
(10.5552 -1.15811 0)
(9.24141 -0.346192 0)
(8.50071 -1.18877 -2.81984e-18)
(8.16985 -1.26824 5.5836e-18)
(5.35608 -0.810045 -2.86838e-18)
(10.0647 -1.38115 0)
(9.1199 -0.051493 2.19781e-17)
(9.21652 -0.26652 2.6533e-17)
(4.77836 -0.863124 -7.57122e-18)
(8.17198 -0.479483 -5.04054e-18)
(7.47963 -1.24614 4.39137e-18)
(5.99453 -0.837022 1.05408e-17)
(7.53794 -1.20356 -4.6007e-18)
(7.09323 -0.390957 6.86027e-18)
(11.6918 -1.38147 -1.1116e-17)
(7.106 -0.206376 -2.20809e-18)
(7.46135 -1.02734 -2.33157e-18)
(7.50635 -1.02462 1.94913e-18)
(7.44459 -0.990202 0)
(7.42798 -1.01201 3.38556e-20)
(11.2588 7.32685 0)
(10.2242 4.24663 1.27202e-17)
(8.7156 -1.33266 0)
(6.66915 0.0343117 -5.79134e-17)
(8.68703 -1.35472 -7.0344e-18)
(8.658 -0.253445 0)
(8.32364 -1.3223 4.14941e-20)
(8.71937 -0.270877 8.22061e-19)
(7.07494 0.00637869 -9.53469e-17)
(8.86539 -0.132659 -4.12338e-20)
(8.60155 0.0400875 1.46496e-17)
(8.64717 0.0291702 -2.16896e-17)
(8.81481 -0.168291 -9.47946e-18)
(8.81831 0.405766 -2.48279e-18)
(6.54897 -0.874325 -7.8443e-19)
(8.87095 -0.638739 6.59707e-19)
(9.58427 0.0207399 0)
(8.33493 -1.27085 0)
(7.6826 -0.126968 -1.45842e-18)
(8.90352 0.433877 -8.44916e-19)
(6.40659 0.0173851 0)
(4.12394 -0.553316 -4.04118e-18)
(11.3526 6.2099 -2.10717e-17)
(8.94213 0.487023 1.87889e-18)
(7.78847 -0.708882 6.78678e-18)
(8.2746 -0.48531 2.03504e-18)
(11.4003 -0.957813 0)
(7.33329 -0.163965 0)
(9.12291 -0.479405 -1.64277e-17)
(11.8625 -1.06489 0)
(6.0297 -0.538277 -3.76404e-18)
(10.5197 -0.916625 0)
(9.92523 -0.92018 0)
(9.1782 -0.376937 -2.88312e-18)
(10.0217 -0.985552 0)
(9.98188 -1.10526 -3.84872e-18)
(6.40981 -0.474935 1.37695e-18)
(6.61493 -0.397431 3.90222e-18)
(10.5097 -0.73565 0)
(10.6214 -0.841694 5.50885e-18)
(9.09899 0.548482 -1.87314e-17)
(10.624 -0.75602 0)
(9.1951 0.531504 3.86284e-17)
(9.58631 0.184596 1.03448e-17)
(8.88617 0.0917333 -1.6382e-17)
(9.17266 -0.0112065 -4.99374e-19)
(9.14159 0.286999 -4.988e-17)
(7.01557 0.0150379 -9.64504e-17)
(8.81924 -1.44541 0)
(6.49331 0.00613826 -8.0858e-17)
(9.03993 0.466884 4.22857e-18)
(10.1041 0.109481 1.60237e-17)
(9.77892 0.140775 3.03559e-17)
(9.51261 0.0234242 -2.69762e-17)
(10.0681 -0.0355506 -5.72157e-17)
(9.81315 0.201225 0)
(7.08351 -0.0958814 -2.59229e-16)
(9.78324 -0.191405 5.10185e-17)
(12.3248 0.135399 7.40812e-18)
(6.58904 0.0137066 0)
(8.89374 0.113702 -4.32644e-17)
(12.4732 -0.294413 1.18525e-17)
(10.2886 -0.558105 -1.63006e-17)
(7.35763 -1.21149 -4.58239e-18)
(9.31402 0.395516 2.15924e-17)
(10.1684 6.54998 -2.84181e-18)
(9.30406 0.307076 -9.59081e-17)
(8.77868 -0.628852 -2.5094e-18)
(8.6289 -0.529362 1.18493e-17)
(7.42708 0.640671 -1.52562e-17)
(10.9205 6.69309 -8.75938e-18)
(8.58533 -0.725122 -3.65836e-18)
(6.58902 -0.224386 0)
(9.54535 0.116575 0)
(9.62384 -0.131749 -5.73756e-17)
(6.8162 0.248841 0)
(6.35124 -0.132835 1.4329e-16)
(8.89729 0.216071 -8.59362e-17)
(6.36391 0.0974345 0)
(8.92555 -0.210022 0)
(6.40081 -0.014935 0)
(7.23361 -1.07048 1.32054e-18)
(8.92063 -1.37274 -3.65867e-18)
(9.07631 -0.0991758 -2.00863e-18)
(8.71218 -1.36972 0)
(10.2464 -1.06265 1.08483e-17)
(10.8621 -0.716935 -3.15626e-18)
(9.09398 -0.059778 0)
(12.0241 -1.37499 4.50197e-18)
(7.28458 -1.14454 1.3651e-18)
(12.264 -1.23965 1.11939e-18)
(4.00071 -0.592354 1.3207e-17)
(5.47665 -0.849224 8.87755e-18)
(7.35842 -1.04474 0)
(7.31363 -1.04282 -1.22092e-18)
(11.9187 -1.38 -7.16832e-18)
(8.06027 -0.933904 0)
(8.86203 -0.0356049 3.82575e-17)
(8.89809 -0.0248094 -1.82652e-17)
(7.93671 -0.690463 7.86635e-18)
(8.86875 -0.0250891 0)
(10.3208 -1.50197 -3.51156e-18)
(9.07631 -1.4523 0)
(6.98075 -1.27366 2.06465e-19)
(7.87504 -0.647995 5.38902e-19)
(9.34083 -1.44133 1.06465e-18)
(6.09481 0.35748 -5.33439e-18)
(6.77219 -1.27509 -2.52049e-18)
(6.5911 -0.0670172 9.35452e-17)
(6.54174 4.20312 -1.34071e-18)
(6.15978 0.195483 -5.01484e-18)
(9.47446 -0.713247 1.16294e-17)
(6.44011 0.170842 5.04196e-18)
(6.72666 0.309183 0)
(9.07426 0.180936 3.27989e-17)
(12.4349 -1.09758 1.89599e-18)
(8.20205 -1.13928 0)
(4.48757 -0.697962 0)
(8.75798 0.0420837 8.05271e-18)
(8.6767 0.0489311 -6.14514e-18)
(6.50175 -0.972512 -3.4183e-18)
(6.22185 -1.03258 -7.3649e-19)
(6.76183 1.2027 3.69363e-17)
(8.4115 0.848706 -1.8767e-17)
(8.21412 -1.16945 -1.32998e-18)
(7.47578 0.480062 1.47801e-17)
(7.29185 1.99917 -3.55421e-18)
(5.20102 -0.949644 0)
(6.86269 -0.989184 -7.68869e-18)
(5.18075 -0.961328 1.50048e-18)
(7.66906 2.42102 5.50608e-17)
(6.10321 -0.992417 -3.04313e-17)
(8.16261 -1.21338 1.52155e-18)
(7.55734 1.62016 2.00801e-17)
(4.2571 -0.680424 8.90153e-19)
(7.47687 0.130124 -2.6006e-17)
(9.0684 0.294282 0)
(8.57889 -1.01746 1.91083e-18)
(7.64976 0.137681 0)
(9.1534 0.25766 2.4135e-17)
(8.09935 -1.26188 -1.70987e-19)
(8.10538 -1.30054 1.44869e-18)
(7.58917 -0.679271 4.87663e-18)
(8.84153 -0.183662 2.38423e-18)
(8.1297 -1.27286 1.71781e-19)
(12.1645 -0.961719 6.12535e-18)
(9.01081 0.172247 2.55691e-17)
(9.76938 -1.03884 -2.28309e-18)
(7.93152 5.84163 0)
(5.84591 4.09732 1.68891e-18)
(8.03932 -1.30024 -1.66467e-18)
(10.7605 -1.0497 -2.63418e-18)
(7.86369 -0.579999 0)
(12.5797 -1.07232 8.29064e-20)
(10.6726 -1.0613 0)
(10.301 -0.72871 0)
(9.67736 -1.3197 1.12125e-20)
(9.62213 -1.34676 -3.35611e-18)
(7.78352 -0.827601 -5.06767e-18)
(12.71 -0.893444 0)
(6.35338 -1.09751 -2.54857e-18)
(7.94097 -0.524515 0)
(12.8389 -1.20292 -5.00553e-18)
(9.58409 -0.110857 -1.43876e-17)
(10.2808 -1.08367 -5.71479e-18)
(12.9546 -0.863528 3.32993e-18)
(9.5711 0.638419 2.25657e-17)
(7.23583 -1.29309 5.13131e-19)
(6.82065 -1.15923 0)
(6.78268 -1.15898 -2.74964e-18)
(8.33852 -1.38711 3.98119e-18)
(8.59137 -0.787803 0)
(10.007 -0.0237061 7.48827e-18)
(8.12499 -1.20058 -1.599e-18)
(9.42187 0.473357 -1.51988e-17)
(9.42781 0.564746 -2.2109e-17)