/*--------------------------------*- C++ -*----------------------------------*\
| =========                 |                                                 |
| \\      /  F ield         | OpenFOAM: The Open Source CFD Toolbox           |
|  \\    /   O peration     | Version:  2206                                  |
|   \\  /    A nd           | Website:  www.openfoam.com                      |
|    \\/     M anipulation  |                                                 |
\*---------------------------------------------------------------------------*/
FoamFile
{
    version     2.0;
    format      ascii;
    arch        "LSB;label=32;scalar=64";
    class       volScalarField;
    location    "233";
    object      nut;
}
// * * * * * * * * * * * * * * * * * * * * * * * * * * * * * * * * * * * * * //

dimensions      [0 2 -1 0 0 0 0];

internalField   nonuniform List<scalar> 
2283
(
0.174344
0.230524
0.00357685
0.00438148
0.00723123
0.00818051
0.129687
0.132261
0.00147892
0.00479799
0.00356789
0.0972376
0.00303118
0.0601671
0.0887786
0.12124
0.12035
0.0443989
0.182685
0.00513895
0.0130103
0.0115973
0.140029
0.139913
0.161803
0.211273
0.135228
0.0295378
0.135206
0.00215329
0.00129028
0.130957
0.126543
0.140708
0.140203
0.126866
0.120875
0.140799
0.140622
0.296512
0.225618
0.0514936
0.00793983
0.0089455
0.0326112
0.0263046
0.0100495
0.0238105
0.0192197
0.137924
0.0128501
0.133016
0.00486856
0.0238599
0.1006
0.0131667
0.0393865
0.0583202
0.00235936
0.10296
0.0512533
0.0742383
0.0133126
0.0462951
0.00106298
0.161977
0.217776
0.0534964
0.00616989
0.009937
0.0508902
0.00470035
0.0961078
0.192041
0.0730969
0.00641654
0.141522
0.139587
0.140536
0.141052
0.0775159
0.101623
0.0235014
0.00407947
0.00136596
0.00392411
0.00986766
0.0313054
0.0111955
0.012763
0.042542
0.00526979
0.0268402
0.0803498
0.0608685
0.14168
0.105388
0.00703883
0.145085
0.00503116
0.0960877
0.105987
0.292044
0.0116707
0.0023169
0.0030266
0.353836
0.15372
0.00359606
0.00247463
0.144261
0.132943
0.132792
0.0668072
0.0536108
0.00312175
0.00626037
0.155315
0.0080158
0.0386753
0.0787502
0.0123434
0.136901
0.136549
0.00118275
0.00922607
0.0421288
0.0118723
0.0107666
0.0138677
0.0308141
0.00364801
0.00251563
0.097154
0.0367271
0.0224024
0.113595
0.112994
0.00817807
0.00706314
0.0472946
0.00971369
0.0144399
0.0420875
0.0598143
0.00200744
0.0505312
0.14043
0.140063
0.0467427
0.14999
0.0675466
0.105442
0.0968419
0.0100121
0.00947472
0.00506239
0.0043726
0.0358033
0.00775365
0.0519593
0.193879
0.0479918
0.0156326
0.123287
0.0236541
0.128156
0.00926024
0.13275
0.0455678
0.00245747
0.00143272
0.00278312
0.00718601
0.120768
0.00552478
0.0344901
0.0294923
0.00607002
0.00563013
0.0240982
0.0138942
0.0051168
0.00275025
0.0220614
0.0176482
0.00186253
0.00771363
0.0156708
0.00357558
0.00366991
0.138591
0.11349
0.0543734
0.0281545
0.0341744
0.0554221
0.0611642
0.0192143
0.0180502
0.0433978
0.0479533
0.00352886
0.0200205
0.00213699
0.0151842
0.010124
0.0196646
0.0612786
0.0210597
0.139453
0.140378
0.00191467
0.0351989
0.0141947
0.0393154
0.00670585
0.0381024
0.0236488
0.00159636
0.00203467
0.0831745
0.00240416
0.012789
0.0066871
0.00189666
0.00583982
0.00918864
0.00470297
0.128875
0.00812294
0.00253519
0.00336659
0.0231939
0.0270577
0.0378907
0.00220148
0.0981507
0.00208668
0.128178
0.0789664
0.0332524
0.00146913
0.124471
0.00948698
0.103671
0.0104691
0.0112092
0.0798172
0.124574
0.166765
0.0023968
0.00212854
0.0718671
0.00135748
0.0160593
0.00203123
0.0820083
0.10049
0.0128752
0.0116011
0.0867795
0.0169209
0.00209456
0.00230529
0.0204353
0.0697238
0.0716221
0.0084542
0.0769438
0.0826302
0.075136
0.0744262
0.0126266
0.0545771
0.0190321
0.0067033
0.0431664
0.0409112
0.0110624
0.0401124
0.0310166
0.0134931
0.00146913
0.0104919
0.0900571
0.0542002
0.0131269
0.0124146
0.0252172
0.0265689
0.105625
0.0491429
0.00644115
0.00209936
0.00354476
0.00249922
0.00873671
0.0117697
0.00999021
0.00575484
0.0122126
0.0120655
0.0687552
0.0950233
0.0511179
0.0743439
0.0525934
0.0222384
0.0215219
0.0364515
0.160365
0.0259438
0.0794552
0.0621151
0.0235623
0.0268115
0.0599579
0.151974
0.0195548
0.0191808
0.0176713
0.193505
0.0155813
0.0175663
0.014967
0.0229389
0.0257223
0.0667278
0.00121083
0.0503488
0.0230405
0.0370951
0.0340725
0.142204
0.140523
0.0310286
0.0144051
0.0772355
0.0197904
0.114406
0.0699991
0.0034458
0.00166705
0.0538001
0.0190081
0.00182829
0.0207412
0.0010401
0.00910089
0.00984611
0.00658618
0.0498755
0.10616
0.140585
0.00770433
0.094799
0.0164449
0.0153344
0.020244
0.0225113
0.00662472
0.00685828
0.00783739
0.128294
0.0207989
0.0493126
0.00990086
0.00696684
0.00475722
0.00329975
0.0200572
0.129938
0.0242509
0.0217444
0.137744
0.126624
0.00722133
0.00720848
0.00822539
0.00611252
0.0988516
0.143608
0.178044
0.1596
0.0256877
0.1091
0.0401303
0.0457956
0.0264191
0.0296468
0.0256497
0.0595379
0.0184671
0.0190817
0.0166087
0.0210501
0.0251723
0.0122722
0.00429829
0.00274676
0.0363199
0.0408589
0.033742
0.00356291
0.0340929
0.0608081
0.00964599
0.00801907
0.00647468
0.00401175
0.0243931
0.0331513
0.0942514
0.0290117
0.0254541
0.144196
0.035573
0.0389345
0.00311391
0.0373025
0.0178555
0.121301
0.209304
0.00616374
0.139962
0.140296
0.0909797
0.0417607
0.0448147
0.112332
0.0972406
0.0889877
0.0492123
0.132779
0.140467
0.140626
0.140496
0.00950797
0.0254563
0.117491
0.140722
0.139342
0.00671147
0.127674
0.0915942
0.0400359
0.00304903
0.00149608
0.0646619
0.00149507
0.0359066
0.104332
0.0354941
0.082364
0.0345394
0.00780924
0.0258621
0.118416
0.133771
0.160972
0.0274707
0.00296063
0.142085
0.0415381
0.029628
0.00454595
0.117176
0.130371
0.144535
0.135822
0.00176269
0.0170511
0.121859
0.119931
0.130422
0.125046
0.111974
0.109476
0.00258613
0.00354257
0.214139
0.193327
0.243426
0.141352
0.137159
0.00412459
0.0210623
0.268372
0.0137782
0.139744
0.138045
0.145931
0.149596
0.121717
0.111121
0.0131022
0.139872
0.0156616
0.107389
0.018506
0.0637498
0.140766
0.140788
0.014667
0.058213
0.0495155
0.232547
0.150316
0.183616
0.124563
0.0352001
0.145591
0.144566
0.146649
0.132935
0.145975
0.0466214
0.0575847
0.0595153
0.0709253
0.062077
0.140512
0.140796
0.136759
0.0588925
0.12686
0.0620824
0.135272
0.139483
0.152461
0.123078
0.00126162
0.113797
0.117778
0.143262
0.139776
0.132866
0.146264
0.131457
0.0357383
0.04007
0.0900695
0.0464069
0.093698
0.0224435
0.0978884
0.141382
0.16324
0.155318
0.148523
0.141457
0.227753
0.195648
0.155956
0.164453
0.154642
0.250187
0.217808
0.141927
0.0900215
0.00934086
0.0104387
0.00769089
0.00943223
0.00765704
0.00901389
0.305002
0.164815
0.237385
0.176161
0.192262
0.102466
0.0325264
0.141312
0.00439903
0.123019
0.147997
0.0545653
0.323292
0.248429
0.124482
0.152843
0.0318653
0.0464558
0.310493
0.0728188
0.282084
0.409671
0.313163
0.0137882
0.157982
0.131159
0.0110616
0.0808793
0.178952
0.126548
0.263723
0.256457
0.424545
0.32958
0.129449
0.13054
0.0300333
0.157716
0.223179
0.00505892
0.322067
0.317899
0.12731
0.00345736
0.0257874
0.00200973
0.00272341
0.00529709
0.139354
0.140926
0.140008
0.129824
0.12792
0.127189
0.14793
0.112755
0.155065
0.134638
0.148611
0.0408915
0.257079
0.371197
0.140779
0.0795394
0.0408598
0.109917
0.376666
0.112794
0.01172
0.139849
0.139993
0.0748521
0.020356
0.00390676
0.203417
0.0358465
0.034888
0.0169552
0.110312
0.133511
0.134037
0.113992
0.0145912
0.144104
0.139801
0.0277852
0.140116
0.141468
0.0128554
0.139946
0.141113
0.0321711
0.0364128
0.14055
0.140566
0.0272327
0.0363837
0.143018
0.0110187
0.0630663
0.140459
0.294744
0.267603
0.140149
0.0858133
0.0480207
0.00959004
0.0423857
0.0547513
0.010939
0.0759617
0.0223788
0.00187469
0.0122469
0.0794173
0.00353642
0.00549068
0.00540587
0.00294215
0.0040545
0.169991
0.293806
0.312194
0.244051
0.145182
0.00330206
0.0161032
0.0193407
0.0947684
0.443804
0.0165109
0.0122289
0.0925929
0.099524
0.0179533
0.00821126
0.0430693
0.0153611
0.0128048
0.0593347
0.0133362
0.139933
0.00953712
0.227482
0.296991
0.00763495
0.00910141
0.0143701
0.00696462
0.018517
0.140478
0.00988614
0.140369
0.139491
0.0482988
0.0115922
0.0104182
0.0242859
0.0274458
0.141085
0.0208293
0.0284739
0.108431
0.0861479
0.00180107
0.0614203
0.0488234
0.0340706
0.0661797
0.0196089
0.141054
0.0725836
0.141059
0.0271902
0.00345896
0.00532515
0.00567617
0.145116
0.150863
0.00108242
0.153178
0.0248963
0.0386978
0.0299063
0.0305308
0.0055769
0.0386155
0.0567511
0.140537
0.140236
0.0154288
0.0108591
0.0479887
0.00395951
0.139782
0.139731
0.0158939
0.0301496
0.139906
0.00693141
0.0212431
0.0109798
0.0175054
0.0107551
0.0107711
0.00222498
0.143262
0.0385002
0.00868402
0.0593904
0.0647815
0.0657764
0.0261094
0.130901
0.00243164
0.144929
0.141824
0.1433
0.151589
0.155577
0.0799187
0.00113574
0.137071
0.127658
0.13784
0.0127876
0.00806669
0.186258
0.00250698
0.0123281
0.00202894
0.161235
0.00180664
0.146614
0.0715513
0.0603292
0.0140176
0.0578734
0.0201539
0.00397856
0.0214846
0.0273355
0.108151
0.017416
0.00413892
0.0025281
0.01628
0.143594
0.117399
0.00281708
0.0201729
0.00735079
0.0117913
0.0102236
0.0421164
0.0119745
0.0474718
0.0199633
0.0214892
0.0227284
0.0204074
0.00314738
0.0393214
0.00749156
0.166295
0.0155743
0.121595
0.0128778
0.11621
0.15941
0.092268
0.138667
0.139974
0.0752856
0.132988
0.0118906
0.00633615
0.143904
0.0123398
0.0835468
0.133021
0.287109
0.00139701
0.0168669
0.131605
0.0564217
0.0266715
0.0236476
0.188009
0.0796666
0.0179181
0.0138542
0.0463333
0.0607358
0.0962358
0.0541331
0.0423719
0.0231593
0.0285127
0.0614535
0.0501068
0.1303
0.0565076
0.130149
0.146882
0.133274
0.144681
0.137185
0.143861
0.00858113
0.306882
0.132353
0.180093
0.148524
0.403091
0.270593
0.229411
0.126774
0.217074
0.0317504
0.334242
0.140514
0.0254249
0.0782335
0.00664219
0.132059
0.00714583
0.133289
0.0496394
0.0435513
0.0699679
0.007986
0.0412063
0.112246
0.143075
0.143655
0.111919
0.347797
0.413559
0.338788
0.399153
0.00576901
0.0137541
0.015574
0.133704
0.0143834
0.0418651
0.0510123
0.135775
0.0104247
0.0113021
0.0123679
0.00398547
0.00642485
0.0172478
0.0168156
0.00977406
0.0229157
0.0810033
0.0947207
0.0640193
0.0813221
0.00927336
0.00736645
0.00697597
0.0650893
0.0116845
0.0298823
0.00598115
0.29309
0.00305209
0.0300452
0.0800501
0.0344784
0.0401199
0.13905
0.0142175
0.0242533
0.00394507
0.142149
0.140815
0.00553183
0.0041772
0.0306103
0.0116958
0.0209142
0.07679
0.0438361
0.00214785
0.00835073
0.00215425
0.00611278
0.00591727
0.0170099
0.0636891
0.00161712
0.0774729
0.137099
0.0359119
0.087271
0.137413
0.011876
0.00876521
0.0195455
0.116638
0.0113625
0.0178175
0.140067
0.0522987
0.00750637
0.00272261
0.006939
0.0299724
0.070395
0.0136994
0.031057
0.0673149
0.0223162
0.0194353
0.0178822
0.015948
0.00444044
0.0770699
0.0107236
0.162721
0.0388118
0.0142507
0.121962
0.00255167
0.00523253
0.0052587
0.00791907
0.048788
0.185013
0.0174861
0.128496
0.125976
0.091197
0.0249506
0.0158378
0.14098
0.00963285
0.010474
0.141085
0.00237505
0.136453
0.137998
0.00953287
0.138659
0.0308657
0.137929
0.117531
0.122056
0.141371
0.142022
0.00500155
0.13558
0.24345
0.323325
0.129313
0.258772
0.115223
0.121232
0.011411
0.0118654
0.00596875
0.00566633
0.0108524
0.103768
0.0944051
0.00914964
0.0331198
0.0859391
0.00484359
0.0146056
0.0296292
0.096997
0.104541
0.02258
0.154621
0.0261463
0.0324287
0.00884235
0.00642995
0.0066439
0.100079
0.0319381
0.0430185
0.00911307
0.010261
0.00686146
0.17076
0.00306785
0.0930881
0.095053
0.0319593
0.0507432
0.0775763
0.0869227
0.00501041
0.0458201
0.0680728
0.0403447
0.00881843
0.0054538
0.024756
0.0754747
0.00585918
0.121109
0.151422
0.114042
0.177635
0.143036
0.131274
0.136765
0.198824
0.00388909
0.14119
0.0583639
0.00360017
0.0604921
0.00285194
0.0125402
0.0154279
0.0170101
0.0769658
0.0665382
0.115152
0.140735
0.0448827
0.0176065
0.101653
0.10361
0.0915545
0.123176
0.0176984
0.126779
0.118042
0.124303
0.00934865
0.140425
0.00466972
0.140457
0.0939364
0.00530681
0.00440207
0.0501647
0.132077
0.00561471
0.131067
0.0199261
0.0479301
0.0436552
0.127301
0.00265763
0.112223
0.0384103
0.142004
0.00567276
0.111879
0.00811697
0.00449371
0.149705
0.0310192
0.140588
0.0282736
0.108871
0.0018829
0.0310418
0.135649
0.0837031
0.00573181
0.143338
0.00816611
0.0938351
0.135555
0.00807988
0.0132033
0.0229941
0.0204972
0.0208395
0.0582575
0.060106
0.00838863
0.0128348
0.0529371
0.101151
0.00675308
0.143419
0.139895
0.00688442
0.121862
0.00390518
0.00253188
0.0149591
0.00757872
0.0143208
0.0104536
0.0158232
0.00632047
0.00840272
0.010006
0.010728
0.00909361
0.124665
0.0116457
0.0108104
0.134215
0.0540997
0.140293
0.13518
0.123563
0.123857
0.00645973
0.161254
0.0956449
0.219315
0.154546
0.0701087
0.0081982
0.0360026
0.0464967
0.00146242
0.00920913
0.0717657
0.00940811
0.109813
0.00731176
0.139758
0.05007
0.0582191
0.060769
0.14074
0.140812
0.0445171
0.036855
0.00754725
0.0242933
0.0131528
0.139718
0.130936
0.0283257
0.00955951
0.132126
0.161065
0.131404
0.00123182
0.00459559
0.0151255
0.152336
0.0127543
0.00827606
0.160626
0.160586
0.159234
0.162065
0.0103747
0.00896666
0.0274996
0.0287511
0.0254175
0.0862228
0.122049
0.0312564
0.0898777
0.00864374
0.066844
0.14455
0.0124876
0.0295953
0.0337042
0.141354
0.146366
0.139891
0.00371939
0.140586
0.0839251
0.00261966
0.018343
0.0321815
0.0107323
0.00694814
0.0109852
0.00530882
0.14104
0.0477181
0.0556984
0.0105817
0.0220266
0.0313762
0.0181617
0.0121944
0.0118832
0.0138707
0.0117782
0.0176636
0.0284699
0.00992762
0.00546257
0.0173471
0.0123419
0.158513
0.153793
0.143664
0.267294
0.00823835
0.0083178
0.0107001
0.142063
0.0144159
0.0457966
0.00309151
0.207123
0.140457
0.140505
0.0723719
0.0743347
0.0135641
0.151589
0.146614
0.147907
0.0352774
0.139834
0.00280483
0.0105115
0.0060748
0.0588565
0.0836318
0.117953
0.16363
0.0721564
0.00203326
0.141167
0.104817
0.0124174
0.0027183
0.00530551
0.00300104
0.00362225
0.00245926
0.13472
0.0190429
0.0197861
0.141583
0.133964
0.138841
0.0264236
0.0363295
0.0334489
0.118287
0.13998
0.0988293
0.108279
0.0812942
0.0449498
0.0101201
0.0125836
0.126312
0.0389512
0.0123052
0.00543241
0.129555
0.017581
0.140931
0.0237881
0.0182267
0.00237767
0.0210814
0.0990509
0.114976
0.130695
0.101125
0.118679
0.0713149
0.079617
0.0216523
0.076877
0.0818039
0.11329
0.0158591
0.0319964
0.0359274
0.0178546
0.00346588
0.00287135
0.00288503
0.0874473
0.00127042
0.00851813
0.0335304
0.135957
0.0139209
0.0180007
0.024801
0.0227233
0.0301166
0.0290026
0.0680162
0.0168964
0.0187142
0.055994
0.0651827
0.21826
0.0918637
0.092031
0.0162715
0.00236796
0.00164941
0.0333398
0.004708
0.0428329
0.00150499
0.0111359
0.00977463
0.0589041
0.00103312
0.0731459
0.190548
0.10826
0.139494
0.0218725
0.00120324
0.0106282
0.184408
0.167237
0.0258999
0.0721564
0.0245098
0.0182531
0.0143562
0.0103139
0.104304
0.00500077
0.00423582
0.00785133
0.00720332
0.0260057
0.0262337
0.0229565
0.00593451
0.00259998
0.102258
0.00450407
0.129361
0.0231521
0.00772521
0.0185135
0.151759
0.00390496
0.0504916
0.00612462
0.0441412
0.135196
0.00173883
0.219517
0.258072
0.00355004
0.0020203
0.138925
0.141075
0.141424
0.141107
0.14046
0.00588489
0.135395
0.287808
0.222612
0.136121
0.00401364
0.00224522
0.134548
0.0989493
0.140075
0.140415
0.214937
0.184799
0.00548071
0.00638924
0.00305837
0.0116454
0.00407337
0.00460532
0.00550408
0.00266768
0.140896
0.140857
0.0139558
0.0141014
0.0293757
0.00329804
0.00576675
0.0104201
0.028153
0.000996639
0.0739347
0.00268418
0.0147313
0.00746782
0.00810732
0.0556907
0.0205182
0.0630181
0.0751664
0.0298999
0.00378563
0.00590712
0.00483668
0.0357942
0.00628484
0.00437211
0.0017293
0.0476609
0.133977
0.0511552
0.221931
0.00821458
0.00733139
0.0276396
0.0498643
0.00221695
0.123806
0.00504382
0.126736
0.118282
0.00280858
0.00545266
0.0141933
0.0486045
0.117612
0.0100202
0.0130631
0.134354
0.136092
0.11287
0.00653656
0.0875573
0.00443991
0.0113469
0.0134528
0.193191
0.261301
0.0013837
0.0141039
0.0131275
0.0412412
0.0198447
0.00349457
0.0126195
0.107094
0.0133789
0.114423
0.011499
0.0349671
0.00569027
0.0190439
0.00754246
0.137666
0.0479463
0.149563
0.137687
0.136992
0.00365359
0.0152625
0.0132803
0.07177
0.0156248
0.0186295
0.0870015
0.0760704
0.00837279
0.00801667
0.0125594
0.0197567
0.00421368
0.0722962
0.00251093
0.00269255
0.00670356
0.00396291
0.137168
0.138388
0.141875
0.138964
0.141797
0.0041363
0.00731464
0.0118576
0.00475212
0.14383
0.00470372
0.156086
0.00493486
0.010381
0.00129846
0.0121004
0.00593882
0.00133001
0.0050483
0.0026409
0.00157854
0.00596284
0.0857137
0.0746523
0.0666468
0.0483086
0.0472369
0.112398
0.112026
0.0126615
0.00673456
0.0138195
0.0424068
0.146222
0.0891473
0.01296
0.00131926
0.0119141
0.145521
0.00512686
0.0047717
0.0691005
0.138422
0.0030688
0.00155425
0.00333784
0.0956768
0.0014663
0.139637
0.134951
0.0400112
0.145959
0.145666
0.00279518
0.000821049
0.0455097
0.0202107
0.00266445
0.0258399
0.00656567
0.0703207
0.145644
0.00192816
0.0461443
0.0341787
0.0854351
0.0320449
0.0150492
0.00789601
0.0146572
0.0111654
0.00863415
0.00950944
0.0227297
0.0373834
0.0409995
0.138441
0.0348865
0.0655393
0.0185851
0.139975
0.0234784
0.0132284
0.0221774
0.0167091
0.156177
0.0117934
0.0138988
0.0311364
0.0420412
0.144703
0.0188752
0.0886831
0.0178431
0.0894281
0.0151239
0.140655
0.141094
0.140681
0.0518532
0.00905787
0.0190082
0.0880567
0.0263934
0.00779358
0.0232576
0.0318691
0.00100876
0.0381827
0.0195099
0.047109
0.0130321
0.0505389
0.0428916
0.345709
0.0147606
0.0555462
0.0338955
0.00458685
0.0469271
0.0739471
0.0128889
0.0272966
0.012841
0.0451385
0.014296
0.0298119
0.00685659
0.00396247
0.0337924
0.014272
0.00906006
0.0340774
0.0398049
0.0208458
0.0399886
0.0547169
0.130624
0.0116297
0.00224476
0.00296805
0.157385
0.0106
0.0163623
0.012711
0.0737379
0.128477
0.0108345
0.0247471
0.0100253
0.00485126
0.111219
0.0882946
0.140139
0.10967
0.0176234
0.00679913
0.02105
0.00789717
0.123299
0.0161564
0.0929377
0.138401
0.0179721
0.139588
0.00661523
0.119845
0.0148134
0.0360281
0.0167972
0.0035901
0.00628851
0.0232444
0.00647524
0.0281038
0.139387
0.0119643
0.00867183
0.00266661
0.0243818
0.0956626
0.00266081
0.0460736
0.0442651
0.0147677
0.067793
0.00492485
0.00950814
0.00804418
0.00494473
0.0289273
0.0229711
0.116775
0.0293229
0.0285897
0.0141745
0.0126684
0.00449917
0.0282109
0.0099142
0.00671934
0.0019058
0.037224
0.0149853
0.00775303
0.130006
0.136665
0.0129308
0.00651232
0.00832935
0.013345
0.108337
0.0146602
0.0138604
0.0147779
0.00123885
0.130879
0.0015704
0.0770975
0.00529712
0.11605
0.00919587
0.0106238
0.00370111
0.00127106
0.107224
0.094372
0.0320436
0.00363234
0.00851562
0.00598421
0.00159181
0.00475168
0.00269935
0.00218044
0.00611278
0.00357009
0.00488226
0.0053914
0.0994343
0.0919525
0.00106571
0.11964
0.142703
0.120219
0.0208405
0.00284843
0.00516648
0.024244
0.0177864
0.123751
0.019568
0.150503
0.025086
0.0200536
0.0135272
0.00199058
0.0319367
0.0377519
0.0318027
0.0189063
0.017243
0.018968
0.00642634
0.00139692
0.0271316
0.0535731
0.0333076
0.0142476
0.0168467
0.00823932
0.0324644
0.139566
0.0013493
0.0019256
0.00360218
0.140033
0.0119877
0.0196132
0.00101439
0.00847303
0.00202258
0.0367917
0.0017257
0.0173107
0.0168283
0.068475
0.0133296
0.00262573
0.00122637
0.0281389
0.0103877
0.0900642
0.0295075
0.021575
0.0246537
0.00458122
0.0206505
0.020398
0.0323087
0.0364425
0.00132382
0.00361384
0.0169566
0.00222764
0.00403259
0.0422291
0.025507
0.00222769
0.0161038
0.0166872
0.137244
0.00770681
0.00938778
0.0304979
0.0113069
0.0112971
0.00471847
0.0376777
0.0042683
0.0445381
0.00821588
0.00817604
0.0246311
0.0230431
0.0319756
0.00109866
0.0571084
0.026203
0.221776
0.0278462
0.0285398
0.218685
0.126394
0.0603685
0.00999443
0.00144231
0.104432
0.0738551
0.0959255
0.00158889
0.0161171
0.0164373
0.0149028
0.0738974
0.0466657
0.00191851
0.139218
0.0153752
0.00120462
0.00270975
0.0146997
0.0717543
0.0243591
0.0234
0.0112132
0.128888
0.0118086
0.0225212
0.00994063
0.0201852
0.0108569
0.0235611
0.00607906
0.00257277
0.020341
0.0576863
0.00914127
0.019108
0.00701964
0.00187864
0.0173001
0.026884
0.0238692
0.0104044
0.0167256
0.0351716
0.0329299
0.00870153
0.0362486
0.0532935
0.0226209
0.000951291
0.0155429
0.0304425
0.111421
0.0107207
0.10715
0.100098
0.0944979
0.277795
0.0142688
0.273011
0.35032
0.00153776
0.0327845
0.00474629
0.0195213
0.00183971
0.00581793
0.00863982
0.140814
0.00767177
0.00997463
0.00545303
0.050241
0.0253368
0.0119738
0.00379563
0.0251514
0.0343016
0.25574
0.0545453
0.0274091
0.0253479
0.0301309
0.0461698
0.0304602
0.0494486
0.116664
0.0467135
0.113636
0.0538695
0.00841418
0.0122011
0.0100709
0.0189006
0.0112404
0.0126614
0.0397005
0.024549
0.135265
0.0025089
0.0822495
0.0084756
0.0060319
0.00870257
0.0585573
0.00942987
0.0830493
0.00167351
0.0583557
0.0312449
0.055263
0.0835771
0.0282976
0.0362806
0.0106185
0.0403417
0.0361384
0.0925976
0.0131771
0.014891
0.00648172
0.00988348
0.0155487
0.00974191
0.132203
0.00195872
0.00146601
0.00600043
0.0153858
0.0391104
0.00422228
0.0736772
0.00385284
0.0203151
0.0022702
0.00509497
0.0911639
0.0137688
0.00145218
0.0122488
0.00488265
0.0293095
0.0104655
0.0210068
0.0048526
0.0021936
0.00104593
0.0145824
0.00591009
0.00101683
0.00131405
0.00900125
0.00829328
0.140495
0.140222
0.140435
0.0259317
0.00210879
0.00612671
0.0116311
0.00300312
0.0335783
0.0311334
0.00607132
0.00928794
0.0564977
0.00971189
0.0109038
0.0252474
0.0236072
0.137953
0.0144245
0.0503553
0.0231182
0.0295433
0.00195536
0.0380714
0.00484095
0.00238555
0.0018763
0.0034846
0.00246884
0.00182286
0.0183661
0.00411143
0.0317956
0.028729
0.0256484
0.0276169
0.026723
0.0121494
0.024097
0.00830762
0.0389816
0.00790482
0.116239
0.190402
0.00654939
0.119702
0.00112455
0.00526445
0.0245292
0.0428828
0.00960945
0.0387037
0.032496
0.00583738
0.0076732
0.13008
0.0104318
0.0263414
0.026083
0.0573733
0.00752338
0.0287796
0.00353074
0.0274555
0.00241381
0.141118
0.00492216
0.00256867
0.0167672
0.010083
0.0017249
0.00547558
0.0071797
0.141123
0.141327
0.00275005
0.0027089
0.135966
0.0153755
0.122224
0.00394802
0.0103125
0.0125104
0.0018427
0.037163
0.0130383
0.0202612
0.0151382
0.0129295
0.0153056
0.0145935
0.00446085
0.00340619
0.0195434
0.0159629
0.0179007
0.0204005
0.0123329
0.0139528
0.0156275
0.00263583
0.00381552
0.00448617
0.11951
0.117386
0.00332011
0.118319
0.00473918
0.00496233
0.00110153
0.0221388
0.0185863
0.0225672
0.0109315
0.0122233
0.0147298
0.0154295
0.00132248
0.0159834
0.0012198
0.00878348
0.0101
0.140349
0.00166049
0.139551
0.00792021
0.00649427
0.00316542
0.0155617
0.00953094
0.00168156
0.0409668
0.0100081
0.0037644
0.00702833
0.00683137
0.00593118
0.0128176
0.00635865
0.0140113
0.00747526
0.0140612
0.0130024
0.0497371
0.0463821
0.124135
0.0162615
0.00320715
0.0299025
0.0340025
0.0085751
0.00459253
0.109544
0.11201
0.0146237
0.00208482
0.0107154
0.0690035
0.00468746
0.00128001
0.0097612
0.00908688
0.00119518
0.00216007
0.0197392
0.00240306
0.0185515
0.0372868
0.00254679
0.00134761
0.0417832
0.00865113
0.0676246
0.0737609
0.0100309
0.0219848
0.0216879
0.0263138
0.0345268
0.0310881
0.0367217
0.103127
0.00849376
0.0227458
0.00997174
0.0303584
0.00378471
0.011557
0.00267006
0.00272751
0.0108671
0.00384265
0.000929367
0.00260357
0.101676
0.00599468
0.00193317
0.00632446
0.00104594
0.00488938
0.00379479
0.0923819
0.00129251
0.00132768
0.0113335
0.00926275
0.0192502
0.12438
0.00795484
0.123163
0.0809127
0.128696
0.0208404
0.0108768
0.00374519
0.135284
0.00103928
0.136498
0.0823114
0.0249832
0.0155784
0.00362556
0.00109752
0.00192874
0.0222571
0.00524563
0.00167011
0.00370947
0.00188323
0.00407617
0.00115171
0.00430576
0.00579888
0.00465281
0.0115267
0.0122398
0.00525493
0.0110881
0.0124877
0.0717293
0.00201817
0.0373288
0.139242
0.017578
0.0131224
0.138413
0.00174705
0.00398731
0.00670476
0.00310899
0.00931052
)
;

boundaryField
{
    frontAndBack
    {
        type            empty;
    }
    outlet
    {
        type            freestream;
        freestreamValue uniform 0.14;
        value           nonuniform List<scalar> 7(0.12792 0.133274 0.229411 0.217074 0.413559 0.399153 0.092031);
    }
    walls
    {
        type            nutUSpaldingWallFunction;
        value           nonuniform List<scalar> 
28
(
0.00575111
0.00597071
0.00611895
0.00626027
0.00658859
0.00681978
0.00625608
0.00573103
0.00590325
0.0055981
0.00473849
0.00626292
0.00772461
0.00604983
0.007617
0.00740609
0.00643495
0.00704852
0.00669518
0.0049303
0.00535446
0.005022
0.00510389
0.00666973
0.00586111
0.00753474
0.00554511
0.00474956
)
;
    }
    inlet
    {
        type            freestream;
        freestreamValue uniform 0.14;
        value           uniform 0.14;
    }
    airfoil
    {
        type            nutUSpaldingWallFunction;
        value           nonuniform List<scalar> 
153
(
4.18773e-05
0.000157888
4.01863e-05
0.000119816
8.47687e-05
3.73608e-05
3.93791e-05
0.000149425
8.4687e-05
0.000148004
3.23972e-05
8.40449e-05
4.08621e-05
0.000109392
7.03915e-05
0.000139357
0.000108327
0.000120571
7.38424e-05
5.84299e-05
7.46548e-05
8.6974e-05
9.72429e-05
4.82598e-05
4.47615e-05
8.34744e-05
6.8059e-05
5.37006e-05
9.1623e-05
3.86729e-05
4.77462e-05
3.4942e-05
0.000105519
6.92327e-05
9.6746e-05
0.00014142
5.32563e-05
9.15793e-05
4.27868e-05
7.26243e-05
0.000121481
0.000106689
0.000107894
7.19996e-05
0.0001034
3.76953e-05
8.12316e-05
3.55409e-05
5.74851e-05
7.014e-05
0.000105254
0.000115101
5.10168e-05
0.000138615
9.06796e-05
0.000129069
0.000146706
6.25874e-05
7.84318e-05
7.6557e-05
7.35954e-05
0.000131688
8.0768e-05
6.11758e-05
0.000151505
4.11208e-05
3.48716e-05
0.000108251
8.44337e-05
8.05812e-05
0.000140867
8.04228e-05
9.85734e-05
9.33254e-05
4.87628e-05
6.65513e-05
5.4587e-05
6.24627e-05
3.67677e-05
3.88597e-05
5.80829e-05
5.0777e-05
9.08972e-05
0.000109633
2.87695e-05
7.28313e-05
6.80716e-05
0.000119055
4.32104e-05
7.58834e-05
3.81043e-05
4.42701e-05
4.63406e-05
3.57995e-05
4.10552e-05
2.34963e-05
0.000129027
3.69679e-05
0.000116826
8.89822e-05
4.15713e-05
4.77336e-05
3.82853e-05
5.03732e-05
0.00014919
3.06192e-05
4.20366e-05
4.11892e-05
2.88451e-05
5.67246e-05
3.52303e-05
4.08364e-05
3.26019e-05
4.28162e-05
4.6706e-05
4.02531e-05
5.03176e-05
3.50457e-05
4.59252e-05
4.95302e-05
4.99048e-05
7.64601e-05
4.40439e-05
4.73314e-05
2.78346e-05
2.87169e-05
4.20358e-05
5.72512e-05
0.000125506
6.42653e-05
7.00635e-05
2.52517e-05
6.18853e-05
7.75958e-05
4.96924e-05
5.77575e-05
2.67721e-05
4.32865e-05
4.18279e-05
5.10525e-05
4.20323e-05
3.87062e-05
6.86781e-05
4.3433e-05
3.20803e-05
7.6549e-05
3.01434e-05
3.10519e-05
3.31593e-05
3.26861e-05
3.95487e-05
5.82694e-05
3.76488e-05
)
;
    }
}


// ************************************************************************* //
