/*--------------------------------*- C++ -*----------------------------------*\
| =========                 |                                                 |
| \\      /  F ield         | OpenFOAM: The Open Source CFD Toolbox           |
|  \\    /   O peration     | Version:  2206                                  |
|   \\  /    A nd           | Website:  www.openfoam.com                      |
|    \\/     M anipulation  |                                                 |
\*---------------------------------------------------------------------------*/
FoamFile
{
    version     2.0;
    format      ascii;
    arch        "LSB;label=32;scalar=64";
    class       volScalarField;
    location    "233";
    object      nuTilda;
}
// * * * * * * * * * * * * * * * * * * * * * * * * * * * * * * * * * * * * * //

dimensions      [0 2 -1 0 0 0 0];

internalField   nonuniform List<scalar> 
2283
(
0.174344
0.230524
0.00357695
0.00438154
0.00723126
0.00818053
0.129687
0.132261
0.00147947
0.00479805
0.00356798
0.0972376
0.00303131
0.0601671
0.0887786
0.12124
0.12035
0.0443989
0.182685
0.005139
0.0130103
0.0115974
0.140029
0.139913
0.161803
0.211273
0.135228
0.0295378
0.135206
0.00215355
0.001291
0.130957
0.126543
0.140708
0.140203
0.126866
0.120875
0.140799
0.140622
0.296512
0.225618
0.0514936
0.00793985
0.00894551
0.0326112
0.0263046
0.0100495
0.0238105
0.0192197
0.137924
0.0128501
0.133016
0.00486861
0.0238599
0.1006
0.0131667
0.0393865
0.0583202
0.00235958
0.10296
0.0512533
0.0742383
0.0133126
0.0462951
0.00106404
0.161977
0.217776
0.0534964
0.00616992
0.00993702
0.0508902
0.0047004
0.0961078
0.192041
0.0730969
0.00641657
0.141522
0.139587
0.140536
0.141052
0.0775159
0.101623
0.0235014
0.00407955
0.00136661
0.00392419
0.00986767
0.0313054
0.0111955
0.012763
0.042542
0.00526984
0.0268402
0.0803498
0.0608685
0.14168
0.105388
0.00703886
0.145085
0.00503121
0.0960877
0.105987
0.292044
0.0116707
0.00231713
0.00302673
0.353836
0.15372
0.00359615
0.00247483
0.144261
0.132943
0.132792
0.0668072
0.0536108
0.00312187
0.0062604
0.155315
0.00801582
0.0386753
0.0787502
0.0123434
0.136901
0.136549
0.00118361
0.00922609
0.0421288
0.0118723
0.0107666
0.0138677
0.0308141
0.0036481
0.00251582
0.097154
0.0367271
0.0224024
0.113595
0.112994
0.00817809
0.00706317
0.0472946
0.0097137
0.0144399
0.0420875
0.0598143
0.00200774
0.0505312
0.14043
0.140063
0.0467427
0.14999
0.0675466
0.105442
0.0968419
0.0100121
0.00947473
0.00506244
0.00437267
0.0358033
0.00775367
0.0519593
0.193879
0.0479918
0.0156326
0.123287
0.0236541
0.128156
0.00926025
0.13275
0.0455678
0.00245767
0.00143331
0.00278328
0.00718603
0.120768
0.00552482
0.0344901
0.0294923
0.00607006
0.00563017
0.0240982
0.0138942
0.00511685
0.00275041
0.0220614
0.0176482
0.00186288
0.00771365
0.0156708
0.00357567
0.00367
0.138591
0.11349
0.0543734
0.0281545
0.0341744
0.0554221
0.0611642
0.0192143
0.0180502
0.0433978
0.0479533
0.00352895
0.0200205
0.00213725
0.0151842
0.010124
0.0196646
0.0612786
0.0210597
0.139453
0.140378
0.001915
0.0351989
0.0141947
0.0393154
0.00670588
0.0381024
0.0236488
0.00159684
0.00203497
0.0831745
0.00240436
0.012789
0.00668713
0.001897
0.00583985
0.00918866
0.00470302
0.128875
0.00812295
0.00253538
0.0033667
0.0231939
0.0270577
0.0378907
0.00220173
0.0981507
0.00208696
0.128178
0.0789664
0.0332524
0.00146969
0.124471
0.00948699
0.103671
0.0104691
0.0112092
0.0798172
0.124574
0.166765
0.00239701
0.00212881
0.0718671
0.00135813
0.0160593
0.00203152
0.0820083
0.10049
0.0128752
0.0116011
0.0867795
0.0169209
0.00209484
0.00230551
0.0204353
0.0697238
0.0716221
0.00845422
0.0769438
0.0826302
0.075136
0.0744262
0.0126266
0.0545771
0.0190321
0.00670333
0.0431664
0.0409112
0.0110624
0.0401124
0.0310166
0.0134931
0.00146969
0.0104919
0.0900571
0.0542002
0.0131269
0.0124146
0.0252172
0.0265689
0.105625
0.0491429
0.00644118
0.00209963
0.00354486
0.00249941
0.00873673
0.0117697
0.00999023
0.00575488
0.0122126
0.0120655
0.0687552
0.0950233
0.0511179
0.0743439
0.0525934
0.0222384
0.0215219
0.0364515
0.160365
0.0259438
0.0794552
0.0621151
0.0235623
0.0268115
0.0599579
0.151974
0.0195549
0.0191808
0.0176713
0.193505
0.0155813
0.0175663
0.014967
0.0229389
0.0257223
0.0667278
0.00121165
0.0503488
0.0230405
0.0370951
0.0340725
0.142204
0.140523
0.0310286
0.0144051
0.0772355
0.0197904
0.114406
0.0699991
0.0034459
0.00166748
0.0538001
0.0190081
0.00182865
0.0207412
0.00104121
0.0091009
0.00984612
0.00658621
0.0498755
0.10616
0.140585
0.00770435
0.094799
0.0164449
0.0153344
0.020244
0.0225113
0.00662475
0.00685831
0.00783741
0.128294
0.0207989
0.0493126
0.00990088
0.00696686
0.00475728
0.00329986
0.0200572
0.129938
0.0242509
0.0217444
0.137744
0.126624
0.00722135
0.00720851
0.00822541
0.00611255
0.0988516
0.143608
0.178044
0.1596
0.0256877
0.1091
0.0401303
0.0457956
0.0264191
0.0296468
0.0256497
0.0595379
0.0184671
0.0190817
0.0166087
0.0210501
0.0251723
0.0122722
0.00429836
0.00274692
0.0363199
0.0408589
0.033742
0.00356301
0.0340929
0.0608081
0.00964601
0.00801909
0.00647471
0.00401182
0.0243931
0.0331513
0.0942514
0.0290117
0.0254541
0.144196
0.035573
0.0389345
0.00311403
0.0373025
0.0178555
0.121301
0.209304
0.00616377
0.139962
0.140296
0.0909797
0.0417607
0.0448147
0.112332
0.0972406
0.0889877
0.0492123
0.132779
0.140467
0.140626
0.140496
0.00950799
0.0254564
0.117491
0.140722
0.139342
0.0067115
0.127674
0.0915942
0.0400359
0.00304916
0.00149662
0.0646619
0.00149561
0.0359066
0.104332
0.0354941
0.082364
0.0345394
0.00780926
0.0258621
0.118416
0.133771
0.160972
0.0274707
0.00296077
0.142085
0.0415381
0.029628
0.00454601
0.117176
0.130371
0.144535
0.135822
0.00176308
0.0170511
0.121859
0.119931
0.130422
0.125046
0.111974
0.109476
0.00258631
0.00354267
0.214139
0.193327
0.243426
0.141352
0.137159
0.00412466
0.0210623
0.268372
0.0137782
0.139744
0.138045
0.145931
0.149596
0.121717
0.111121
0.0131022
0.139872
0.0156616
0.107389
0.018506
0.0637498
0.140766
0.140788
0.014667
0.058213
0.0495155
0.232547
0.150316
0.183616
0.124563
0.0352001
0.145591
0.144566
0.146649
0.132935
0.145975
0.0466214
0.0575847
0.0595153
0.0709253
0.062077
0.140512
0.140796
0.136759
0.0588925
0.12686
0.0620824
0.135272
0.139483
0.152461
0.123078
0.00126237
0.113797
0.117778
0.143262
0.139776
0.132866
0.146264
0.131457
0.0357383
0.04007
0.0900695
0.0464069
0.093698
0.0224435
0.0978884
0.141382
0.16324
0.155318
0.148523
0.141457
0.227753
0.195648
0.155956
0.164453
0.154642
0.250187
0.217808
0.141927
0.0900215
0.00934088
0.0104387
0.00769091
0.00943224
0.00765706
0.00901391
0.305002
0.164815
0.237385
0.176161
0.192262
0.102466
0.0325264
0.141312
0.00439909
0.123019
0.147997
0.0545653
0.323292
0.248429
0.124482
0.152843
0.0318653
0.0464558
0.310493
0.0728188
0.282084
0.409671
0.313163
0.0137882
0.157982
0.131159
0.0110616
0.0808793
0.178952
0.126548
0.263723
0.256457
0.424545
0.32958
0.129449
0.13054
0.0300333
0.157716
0.223179
0.00505896
0.322067
0.317899
0.12731
0.00345746
0.0257874
0.00201003
0.00272357
0.00529714
0.139354
0.140926
0.140008
0.129824
0.12792
0.127189
0.14793
0.112755
0.155065
0.134638
0.148611
0.0408915
0.257079
0.371197
0.140779
0.0795394
0.0408598
0.109917
0.376666
0.112794
0.01172
0.139849
0.139993
0.0748521
0.020356
0.00390684
0.203417
0.0358465
0.034888
0.0169552
0.110312
0.133511
0.134037
0.113992
0.0145912
0.144104
0.139801
0.0277852
0.140116
0.141468
0.0128554
0.139946
0.141113
0.0321711
0.0364128
0.14055
0.140566
0.0272327
0.0363837
0.143018
0.0110187
0.0630663
0.140459
0.294744
0.267603
0.140149
0.0858133
0.0480207
0.00959005
0.0423857
0.0547513
0.0109391
0.0759617
0.0223788
0.00187503
0.0122469
0.0794173
0.00353652
0.00549072
0.00540592
0.00294229
0.00405458
0.169991
0.293806
0.312194
0.244051
0.145182
0.00330218
0.0161032
0.0193407
0.0947684
0.443804
0.0165109
0.0122289
0.0925929
0.099524
0.0179533
0.00821127
0.0430693
0.0153611
0.0128048
0.0593347
0.0133362
0.139933
0.00953714
0.227482
0.296991
0.00763497
0.00910142
0.0143701
0.00696465
0.018517
0.140478
0.00988616
0.140369
0.139491
0.0482988
0.0115922
0.0104182
0.0242859
0.0274458
0.141085
0.0208293
0.0284739
0.108431
0.0861479
0.00180144
0.0614203
0.0488234
0.0340706
0.0661797
0.0196089
0.141054
0.0725836
0.141059
0.0271902
0.00345906
0.00532519
0.0056762
0.145116
0.150863
0.00108345
0.153178
0.0248963
0.0386978
0.0299063
0.0305308
0.00557694
0.0386155
0.0567511
0.140537
0.140236
0.0154288
0.0108591
0.0479887
0.00395959
0.139782
0.139731
0.0158939
0.0301496
0.139906
0.00693144
0.0212431
0.0109798
0.0175054
0.0107551
0.0107711
0.00222522
0.143262
0.0385002
0.00868404
0.0593904
0.0647815
0.0657764
0.0261094
0.130901
0.00243184
0.144929
0.141824
0.1433
0.151589
0.155577
0.0799187
0.00113667
0.137071
0.127658
0.13784
0.0127876
0.00806671
0.186258
0.00250717
0.0123281
0.00202923
0.161235
0.00180701
0.146614
0.0715513
0.0603292
0.0140176
0.0578734
0.0201539
0.00397863
0.0214846
0.0273355
0.108151
0.017416
0.004139
0.00252829
0.01628
0.143594
0.117399
0.00281723
0.0201729
0.00735081
0.0117913
0.0102236
0.0421164
0.0119745
0.0474718
0.0199633
0.0214892
0.0227284
0.0204074
0.00314751
0.0393214
0.00749158
0.166295
0.0155743
0.121595
0.0128779
0.11621
0.15941
0.092268
0.138667
0.139974
0.0752856
0.132988
0.0118906
0.00633618
0.143904
0.0123398
0.0835468
0.133021
0.287109
0.00139763
0.0168669
0.131605
0.0564217
0.0266715
0.0236476
0.188009
0.0796666
0.0179181
0.0138542
0.0463333
0.0607358
0.0962358
0.0541331
0.0423719
0.0231593
0.0285127
0.0614535
0.0501068
0.1303
0.0565076
0.130149
0.146882
0.133274
0.144681
0.137185
0.143861
0.00858115
0.306882
0.132353
0.180093
0.148524
0.403091
0.270593
0.229411
0.126774
0.217074
0.0317504
0.334242
0.140514
0.0254249
0.0782335
0.00664222
0.132059
0.00714586
0.133289
0.0496394
0.0435513
0.0699679
0.00798602
0.0412063
0.112246
0.143075
0.143655
0.111919
0.347797
0.413559
0.338788
0.399153
0.00576905
0.0137541
0.015574
0.133704
0.0143834
0.0418651
0.0510123
0.135775
0.0104247
0.0113021
0.0123679
0.00398555
0.00642488
0.0172478
0.0168156
0.00977407
0.0229157
0.0810033
0.0947207
0.0640193
0.0813221
0.00927337
0.00736647
0.006976
0.0650893
0.0116845
0.0298823
0.00598118
0.29309
0.00305222
0.0300452
0.0800501
0.0344784
0.0401199
0.13905
0.0142175
0.0242533
0.00394515
0.142149
0.140815
0.00553186
0.00417727
0.0306104
0.0116958
0.0209142
0.07679
0.0438361
0.00214812
0.00835075
0.00215451
0.00611281
0.00591731
0.0170099
0.0636891
0.00161758
0.0774729
0.137099
0.0359119
0.087271
0.137413
0.011876
0.00876523
0.0195455
0.116638
0.0113625
0.0178176
0.140067
0.0522987
0.00750639
0.00272277
0.00693903
0.0299724
0.070395
0.0136994
0.031057
0.0673149
0.0223162
0.0194353
0.0178822
0.015948
0.0044405
0.0770699
0.0107236
0.162721
0.0388118
0.0142507
0.121962
0.00255185
0.00523257
0.00525874
0.00791909
0.048788
0.185013
0.0174861
0.128496
0.125976
0.091197
0.0249506
0.0158378
0.14098
0.00963287
0.010474
0.141085
0.00237527
0.136453
0.137998
0.00953289
0.138659
0.0308657
0.137929
0.117531
0.122056
0.141371
0.142022
0.0050016
0.13558
0.24345
0.323325
0.129313
0.258772
0.115223
0.121232
0.0114111
0.0118654
0.00596878
0.00566637
0.0108524
0.103768
0.0944051
0.00914965
0.0331198
0.0859391
0.00484364
0.0146056
0.0296292
0.096997
0.104541
0.02258
0.154621
0.0261463
0.0324287
0.00884237
0.00642998
0.00664392
0.100079
0.0319381
0.0430185
0.00911309
0.0102611
0.00686149
0.17076
0.00306798
0.0930881
0.095053
0.0319593
0.0507432
0.0775763
0.0869227
0.00501045
0.0458201
0.0680728
0.0403447
0.00881844
0.00545384
0.024756
0.0754747
0.00585921
0.121109
0.151422
0.114042
0.177635
0.143036
0.131274
0.136765
0.198824
0.00388917
0.14119
0.0583639
0.00360027
0.0604921
0.00285209
0.0125402
0.0154279
0.0170101
0.0769658
0.0665382
0.115152
0.140735
0.0448827
0.0176065
0.101653
0.10361
0.0915545
0.123176
0.0176984
0.126779
0.118042
0.124303
0.00934866
0.140425
0.00466978
0.140457
0.0939364
0.00530685
0.00440213
0.0501647
0.132077
0.00561475
0.131067
0.0199261
0.0479301
0.0436552
0.127301
0.0026578
0.112223
0.0384103
0.142004
0.0056728
0.111879
0.00811699
0.00449377
0.149705
0.0310192
0.140588
0.0282736
0.108871
0.00188324
0.0310418
0.135649
0.0837031
0.00573185
0.143338
0.00816613
0.0938351
0.135555
0.00807989
0.0132033
0.0229941
0.0204973
0.0208395
0.0582575
0.060106
0.00838865
0.0128348
0.0529371
0.101151
0.0067531
0.143419
0.139895
0.00688444
0.121862
0.00390526
0.00253207
0.0149591
0.00757874
0.0143208
0.0104536
0.0158232
0.0063205
0.00840274
0.010006
0.0107281
0.00909362
0.124665
0.0116457
0.0108104
0.134215
0.0540997
0.140293
0.13518
0.123563
0.123857
0.00645976
0.161254
0.0956449
0.219315
0.154546
0.0701087
0.00819822
0.0360026
0.0464967
0.00146298
0.00920915
0.0717657
0.00940813
0.109813
0.00731179
0.139758
0.05007
0.0582191
0.060769
0.14074
0.140812
0.0445171
0.036855
0.00754727
0.0242933
0.0131528
0.139718
0.130936
0.0283257
0.00955952
0.132126
0.161065
0.131404
0.00123262
0.00459565
0.0151256
0.152336
0.0127543
0.00827608
0.160626
0.160586
0.159234
0.162065
0.0103747
0.00896667
0.0274996
0.0287511
0.0254175
0.0862228
0.122049
0.0312564
0.0898777
0.00864376
0.066844
0.14455
0.0124876
0.0295953
0.0337042
0.141354
0.146366
0.139891
0.00371948
0.140586
0.0839251
0.00261983
0.018343
0.0321815
0.0107323
0.00694817
0.0109852
0.00530887
0.14104
0.0477181
0.0556984
0.0105817
0.0220266
0.0313762
0.0181617
0.0121944
0.0118832
0.0138707
0.0117782
0.0176637
0.0284699
0.00992763
0.00546262
0.0173471
0.0123419
0.158513
0.153793
0.143664
0.267294
0.00823837
0.00831782
0.0107001
0.142063
0.0144159
0.0457966
0.00309163
0.207123
0.140457
0.140505
0.0723719
0.0743347
0.0135641
0.151589
0.146614
0.147907
0.0352774
0.139834
0.00280499
0.0105115
0.00607483
0.0588565
0.0836318
0.117953
0.16363
0.0721564
0.00203355
0.141167
0.104817
0.0124174
0.00271847
0.00530555
0.00300117
0.00362234
0.00245946
0.13472
0.0190429
0.0197861
0.141583
0.133964
0.138842
0.0264236
0.0363295
0.0334489
0.118287
0.13998
0.0988293
0.108279
0.0812942
0.0449498
0.0101201
0.0125836
0.126312
0.0389512
0.0123053
0.00543245
0.129555
0.017581
0.140931
0.0237881
0.0182267
0.00237788
0.0210814
0.0990509
0.114976
0.130695
0.101125
0.118679
0.0713149
0.079617
0.0216523
0.076877
0.0818039
0.11329
0.0158591
0.0319964
0.0359274
0.0178547
0.00346599
0.00287149
0.00288518
0.0874473
0.00127117
0.00851815
0.0335304
0.135957
0.0139209
0.0180007
0.024801
0.0227233
0.0301166
0.0290026
0.0680162
0.0168964
0.0187142
0.055994
0.0651827
0.21826
0.0918637
0.092031
0.0162715
0.00236818
0.00164985
0.0333398
0.00470805
0.0428329
0.00150552
0.0111359
0.00977464
0.0589041
0.00103425
0.0731459
0.190548
0.10826
0.139494
0.0218725
0.00120407
0.0106282
0.184408
0.167237
0.0258999
0.0721564
0.0245098
0.0182531
0.0143562
0.0103139
0.104304
0.00500082
0.00423589
0.00785135
0.00720334
0.0260057
0.0262337
0.0229565
0.00593454
0.00260016
0.102258
0.00450413
0.129361
0.0231521
0.00772523
0.0185135
0.151759
0.00390504
0.0504916
0.00612465
0.0441412
0.135196
0.00173922
0.219517
0.258072
0.00355014
0.0020206
0.138925
0.141075
0.141424
0.141107
0.14046
0.00588493
0.135395
0.287808
0.222612
0.136121
0.00401371
0.00224546
0.134548
0.0989493
0.140075
0.140415
0.214937
0.184799
0.00548075
0.00638927
0.0030585
0.0116454
0.00407344
0.00460538
0.00550412
0.00266785
0.140896
0.140857
0.0139558
0.0141014
0.0293757
0.00329815
0.00576678
0.0104201
0.028153
0.00099785
0.0739347
0.00268435
0.0147313
0.00746784
0.00810733
0.0556907
0.0205182
0.0630181
0.0751664
0.0298999
0.00378571
0.00590715
0.00483673
0.0357942
0.00628487
0.00437217
0.0017297
0.0476609
0.133977
0.0511552
0.221931
0.0082146
0.00733141
0.0276396
0.0498643
0.0022172
0.123806
0.00504387
0.126736
0.118282
0.00280873
0.0054527
0.0141933
0.0486045
0.117612
0.0100202
0.0130631
0.134354
0.136092
0.11287
0.00653659
0.0875573
0.00443997
0.0113469
0.0134528
0.193191
0.261301
0.00138433
0.0141039
0.0131275
0.0412412
0.0198447
0.00349467
0.0126195
0.107094
0.0133789
0.114423
0.011499
0.0349671
0.00569031
0.0190439
0.00754248
0.137666
0.0479463
0.149563
0.137687
0.136992
0.00365368
0.0152625
0.0132803
0.07177
0.0156248
0.0186295
0.0870015
0.0760704
0.00837281
0.00801669
0.0125594
0.0197567
0.00421375
0.0722962
0.00251112
0.00269271
0.00670359
0.00396298
0.137168
0.138388
0.141875
0.138964
0.141797
0.00413637
0.00731466
0.0118576
0.00475217
0.14383
0.00470377
0.156086
0.00493491
0.010381
0.00129917
0.0121004
0.00593885
0.0013307
0.00504834
0.00264107
0.00157902
0.00596288
0.0857137
0.0746523
0.0666468
0.0483086
0.0472369
0.112398
0.112026
0.0126615
0.00673458
0.0138195
0.0424068
0.146222
0.0891473
0.01296
0.00131995
0.0119141
0.145521
0.0051269
0.00477176
0.0691005
0.138422
0.00306893
0.00155474
0.00333795
0.0956768
0.00146686
0.139637
0.134951
0.0400112
0.145959
0.145666
0.00279533
0.000822829
0.0455097
0.0202107
0.00266462
0.0258399
0.00656569
0.0703207
0.145644
0.00192849
0.0461443
0.0341787
0.0854351
0.032045
0.0150492
0.00789603
0.0146572
0.0111654
0.00863416
0.00950946
0.0227297
0.0373834
0.0409995
0.138441
0.0348865
0.0655393
0.0185851
0.139975
0.0234784
0.0132285
0.0221774
0.0167091
0.156177
0.0117934
0.0138988
0.0311364
0.0420412
0.144703
0.0188752
0.0886831
0.0178431
0.0894281
0.0151239
0.140655
0.141094
0.140681
0.0518532
0.00905788
0.0190082
0.0880567
0.0263934
0.0077936
0.0232576
0.0318691
0.00100994
0.0381827
0.0195099
0.047109
0.0130321
0.0505389
0.0428916
0.345709
0.0147606
0.0555462
0.0338955
0.00458691
0.0469271
0.0739471
0.0128889
0.0272966
0.012841
0.0451385
0.014296
0.0298119
0.00685661
0.00396254
0.0337924
0.014272
0.00906008
0.0340774
0.0398049
0.0208458
0.0399886
0.0547169
0.130624
0.0116297
0.002245
0.00296819
0.157385
0.0106
0.0163623
0.012711
0.0737379
0.128477
0.0108345
0.0247471
0.0100253
0.00485131
0.111219
0.0882946
0.140139
0.10967
0.0176234
0.00679916
0.02105
0.00789719
0.123299
0.0161564
0.0929377
0.138401
0.0179721
0.139588
0.00661525
0.119845
0.0148134
0.0360281
0.0167972
0.00359019
0.00628854
0.0232444
0.00647527
0.0281038
0.139387
0.0119643
0.00867185
0.00266678
0.0243818
0.0956626
0.00266098
0.0460736
0.0442651
0.0147677
0.067793
0.0049249
0.00950816
0.0080442
0.00494478
0.0289273
0.0229711
0.116775
0.0293229
0.0285897
0.0141745
0.0126684
0.00449922
0.0282109
0.00991421
0.00671937
0.00190613
0.037224
0.0149853
0.00775305
0.130006
0.136665
0.0129308
0.00651234
0.00832937
0.013345
0.108337
0.0146602
0.0138605
0.0147779
0.00123963
0.130879
0.00157089
0.0770975
0.00529716
0.11605
0.00919589
0.0106239
0.0037012
0.00127181
0.107224
0.094372
0.0320436
0.00363243
0.00851563
0.00598425
0.00159228
0.00475173
0.00269952
0.00218069
0.00611282
0.00357019
0.00488231
0.00539144
0.0994343
0.0919525
0.00106677
0.11964
0.142703
0.120219
0.0208405
0.00284858
0.00516652
0.024244
0.0177864
0.123751
0.019568
0.150503
0.025086
0.0200536
0.0135272
0.00199088
0.0319367
0.0377519
0.0318027
0.0189063
0.017243
0.018968
0.00642636
0.00139754
0.0271316
0.0535731
0.0333076
0.0142476
0.0168467
0.00823934
0.0324644
0.139566
0.00134996
0.00192593
0.00360228
0.140033
0.0119877
0.0196132
0.00101556
0.00847305
0.00202288
0.0367917
0.00172611
0.0173107
0.0168283
0.068475
0.0133296
0.00262591
0.00122717
0.0281389
0.0103877
0.0900642
0.0295075
0.0215751
0.0246537
0.00458128
0.0206505
0.020398
0.0323087
0.0364425
0.00132451
0.00361393
0.0169566
0.00222788
0.00403267
0.0422291
0.025507
0.00222793
0.0161038
0.0166872
0.137244
0.00770683
0.00938779
0.0304979
0.0113069
0.0112971
0.00471853
0.0376777
0.00426836
0.0445381
0.0082159
0.00817605
0.0246311
0.0230431
0.0319756
0.00109966
0.0571084
0.026203
0.221776
0.0278462
0.0285398
0.218685
0.126394
0.0603685
0.00999444
0.00144289
0.104432
0.0738551
0.0959255
0.00158937
0.0161171
0.0164373
0.0149028
0.0738974
0.0466657
0.00191884
0.139218
0.0153752
0.00120545
0.00270991
0.0146997
0.0717543
0.0243591
0.0234
0.0112132
0.128888
0.0118086
0.0225212
0.00994065
0.0201852
0.0108569
0.0235611
0.00607909
0.00257295
0.020341
0.0576863
0.00914128
0.019108
0.00701967
0.00187898
0.0173001
0.026884
0.0238692
0.0104044
0.0167256
0.0351716
0.0329299
0.00870155
0.0362486
0.0532935
0.0226209
0.00095262
0.0155429
0.0304425
0.111421
0.0107207
0.10715
0.100098
0.0944979
0.277795
0.0142688
0.273011
0.35032
0.00153827
0.0327845
0.00474634
0.0195213
0.00184006
0.00581797
0.00863984
0.140814
0.00767179
0.00997464
0.00545307
0.050241
0.0253368
0.0119738
0.00379572
0.0251514
0.0343016
0.25574
0.0545453
0.0274091
0.0253479
0.0301309
0.0461698
0.0304602
0.0494486
0.116664
0.0467135
0.113636
0.0538695
0.0084142
0.0122011
0.0100709
0.0189006
0.0112404
0.0126614
0.0397005
0.024549
0.135265
0.00250909
0.0822495
0.00847562
0.00603193
0.00870259
0.0585573
0.00942988
0.0830493
0.00167394
0.0583557
0.0312449
0.055263
0.0835771
0.0282976
0.0362806
0.0106185
0.0403417
0.0361384
0.0925976
0.0131771
0.014891
0.00648175
0.00988349
0.0155487
0.00974192
0.132203
0.00195904
0.00146657
0.00600046
0.0153858
0.0391104
0.00422235
0.0736772
0.00385292
0.0203151
0.00227043
0.00509502
0.0911639
0.0137688
0.00145275
0.0122488
0.0048827
0.0293095
0.0104655
0.0210068
0.00485265
0.00219385
0.00104704
0.0145824
0.00591013
0.00101799
0.00131475
0.00900126
0.0082933
0.140495
0.140222
0.140435
0.0259317
0.00210906
0.00612674
0.0116311
0.00300325
0.0335783
0.0311334
0.00607136
0.00928796
0.0564977
0.0097119
0.0109038
0.0252474
0.0236072
0.137953
0.0144245
0.0503553
0.0231182
0.0295433
0.00195568
0.0380714
0.00484101
0.00238576
0.00187665
0.0034847
0.00246904
0.00182323
0.0183661
0.0041115
0.0317956
0.028729
0.0256484
0.0276169
0.026723
0.0121494
0.024097
0.00830764
0.0389816
0.00790484
0.116239
0.190402
0.00654942
0.119702
0.0011255
0.00526449
0.0245292
0.0428828
0.00960946
0.0387037
0.032496
0.00583741
0.00767322
0.13008
0.0104318
0.0263414
0.026083
0.0573733
0.0075234
0.0287796
0.00353084
0.0274555
0.00241401
0.141118
0.00492221
0.00256886
0.0167672
0.010083
0.0017253
0.00547562
0.00717973
0.141123
0.141327
0.0027502
0.00270906
0.135966
0.0153755
0.122224
0.0039481
0.0103125
0.0125104
0.00184305
0.037163
0.0130383
0.0202612
0.0151382
0.0129295
0.0153056
0.0145935
0.00446091
0.0034063
0.0195434
0.0159629
0.0179007
0.0204005
0.0123329
0.0139528
0.0156275
0.002636
0.0038156
0.00448623
0.11951
0.117386
0.00332022
0.118319
0.00473924
0.00496238
0.00110252
0.0221388
0.0185863
0.0225672
0.0109315
0.0122233
0.0147298
0.0154295
0.00132317
0.0159834
0.00122061
0.0087835
0.0101
0.140349
0.00166093
0.139551
0.00792023
0.0064943
0.00316554
0.0155617
0.00953095
0.00168198
0.0409668
0.0100081
0.00376448
0.00702835
0.00683139
0.00593122
0.0128176
0.00635868
0.0140114
0.00747528
0.0140612
0.0130024
0.0497371
0.0463821
0.124135
0.0162615
0.00320726
0.0299025
0.0340025
0.00857512
0.00459259
0.109544
0.11201
0.0146238
0.0020851
0.0107154
0.0690035
0.00468752
0.00128074
0.00976121
0.00908689
0.00119602
0.00216032
0.0197392
0.00240327
0.0185515
0.0372868
0.00254697
0.00134827
0.0417832
0.00865114
0.0676246
0.0737609
0.0100309
0.0219848
0.0216879
0.0263138
0.0345268
0.0310881
0.0367217
0.103127
0.00849377
0.0227458
0.00997175
0.0303584
0.00378479
0.011557
0.00267023
0.00272767
0.0108671
0.00384273
0.000930759
0.00260375
0.101676
0.00599471
0.0019335
0.00632449
0.00104704
0.00488943
0.00379487
0.0923819
0.00129323
0.00132837
0.0113335
0.00926276
0.0192502
0.12438
0.00795486
0.123163
0.0809127
0.128696
0.0208404
0.0108768
0.00374528
0.135284
0.00104039
0.136498
0.0823114
0.0249832
0.0155784
0.00362565
0.00109852
0.00192906
0.0222571
0.00524567
0.00167054
0.00370956
0.00188357
0.00407624
0.00115262
0.00430583
0.00579891
0.00465287
0.0115267
0.0122398
0.00525497
0.0110881
0.0124877
0.0717293
0.00201846
0.0373288
0.139242
0.017578
0.0131224
0.138413
0.00174745
0.00398738
0.00670478
0.00310911
0.00931054
)
;

boundaryField
{
    frontAndBack
    {
        type            empty;
    }
    outlet
    {
        type            freestream;
        freestreamValue uniform 0.14;
        value           nonuniform List<scalar> 7(0.12792 0.133274 0.229411 0.217074 0.413559 0.399153 0.092031);
    }
    walls
    {
        type            fixedValue;
        value           uniform 0;
    }
    inlet
    {
        type            freestream;
        freestreamValue uniform 0.14;
        value           uniform 0.14;
    }
    airfoil
    {
        type            fixedValue;
        value           uniform 0;
    }
}


// ************************************************************************* //
