/*--------------------------------*- C++ -*----------------------------------*\
| =========                 |                                                 |
| \\      /  F ield         | OpenFOAM: The Open Source CFD Toolbox           |
|  \\    /   O peration     | Version:  2206                                  |
|   \\  /    A nd           | Website:  www.openfoam.com                      |
|    \\/     M anipulation  |                                                 |
\*---------------------------------------------------------------------------*/
FoamFile
{
    version     2.0;
    format      ascii;
    arch        "LSB;label=32;scalar=64";
    class       volScalarField;
    location    "233";
    object      p;
}
// * * * * * * * * * * * * * * * * * * * * * * * * * * * * * * * * * * * * * //

dimensions      [0 2 -2 0 0 0 0];

internalField   nonuniform List<scalar> 
2283
(
-0.654821
-0.89577
-11.1247
-11.2579
9.47189
9.88704
-4.9149
-4.62467
-18.328
-164.123
-205.428
8.08569
-7.87017
-8.74552
10.3269
0.427326
-1.48719
14.1961
-1.39326
-26.4834
-12.6186
-12.6982
-1.26625
-1.30575
-1.37442
-1.7227
0.80617
-26.3696
1.18605
-16.2019
-16.1283
3.09291
3.65478
-1.47656
-1.1627
1.05191
0.826335
-1.56187
-1.4988
-2.07979
-3.2541
-8.36111
-28.6488
-28.1412
-29.6925
-30.7296
-9.39426
21.2705
21.9909
-0.0437882
10.4246
-0.272838
-32.9926
-22.7124
-13.2757
-20.0635
14.4523
13.983
-14.9044
-12.1186
14.6899
-22.8859
-20.547
-26.5532
-11.1708
-2.49709
-2.63469
-24.9495
10.228
-21.9886
8.30878
2.26017
-8.72137
-0.848258
-4.69359
3.07277
0.402425
-0.496163
-2.52731
-2.33531
-0.423278
0.186948
-21.9548
0.623635
-22.3384
0.541967
-39.2183
-21.0589
-26.0221
-25.9043
-9.05341
-90.0546
-21.0663
-1.68506
-1.4096
0.902065
-7.45442
-17.5583
0.639739
-18.1356
-14.3002
-10.9067
-2.23385
-25.0894
-27.2387
-94.6997
-2.77468
-2.39008
7.92215
7.71188
-2.88231
2.31607
1.71664
2.09182
0.4092
-56.8296
11.2693
0.665972
-18.876
-0.503116
3.05094
-19.5088
-0.575836
-0.982703
-27.7815
6.78578
-9.74642
-19.0334
-10.6977
-27.1343
5.95458
7.27545
9.26478
-4.59189
6.04059
12.49
-1.7624
-1.95597
-10.6451
5.30097
15.1213
-2.57486
-5.01443
8.07736
13.1543
-10.9906
-30.9334
-0.802586
-1.04291
-4.66311
0.807261
12.1609
4.1147
3.45033
-10.0252
5.71825
-16.3427
-10.1798
7.19117
-16.0828
15.5565
-2.25889
16.3837
-33.7756
-7.41708
-30.2066
-6.17763
-15.8989
-3.27352
5.58095
-28.8225
-28.5358
-12.0609
-15.987
-4.72182
6.2334
-27.9492
-27.431
-27.4736
-10.5226
-9.29786
23.3711
24.9358
-24.7229
19.2559
19.7897
-23.6398
11.6396
10.767
-4.01485
-9.02418
1.19746
-2.34776
-2.83865
20.5827
19.0097
11.4832
11.3051
-22.9552
-23.523
10.7751
10.6364
-10.2168
-24.2151
-10.5287
-10.7352
-74.464
0.617511
11.9764
20.8586
-1.6883
-1.61485
-13.9416
8.80629
-11.4596
7.40144
-39.9045
7.8701
-13.815
-14.5694
-9.80636
8.24874
-15.1142
-11.1726
8.28931
-15.9006
-9.97677
-15.1749
-10.92
-0.153418
-15.2052
7.72315
-12.4391
-24.1514
-23.4087
-3.61796
-14.3693
8.45922
-16.3472
-1.6125
-8.92127
8.09673
-15.0764
-2.07158
-9.4177
7.72054
-15.1457
-15.4363
6.99422
2.83843
-1.10202
-20.7275
-20.5111
-7.94981
-19.8047
-9.03735
-22.2866
8.97702
8.16902
-38.8585
-38.7346
9.03206
11.6597
-9.83003
-90.8159
-16.5045
-6.72532
-0.752781
-14.0971
-0.68941
9.83271
9.64058
11.579
5.70202
12.409
5.59951
-14.6591
8.9317
-40.2548
8.50667
8.5243
-49.0784
-15.2978
-10.3155
-9.3796
5.54915
-23.2739
-13.1499
-13.2023
19.7063
19.032
2.34739
-23.8522
-30.726
-16.3181
7.46179
7.26783
-28.6516
-4.79557
-29.2573
-31.7963
7.37126
7.52358
-1.42661
-1.46988
-1.14339
-0.881944
12.886
-8.88203
-10.0846
-0.470287
-2.27249
-0.94103
5.49894
4.41088
17.8492
16.9498
-22.003
-1.93408
5.8245
12.999
-11.2048
-2.08915
-11.1521
11.19
11.2487
10.8752
10.7389
-20.6672
-12.524
-17.3452
17.4186
18.0857
10.0339
-1.49297
-1.65076
10.3224
-19.8005
4.30088
-10.9449
-4.95445
3.34469
-58.3252
-65.6583
3.86084
-10.4057
-12.5669
-18.2034
-14.8447
-22.0331
6.15952
-42.7894
12.457
-4.29636
-1.30302
12.0937
4.62487
8.58333
8.94864
8.48889
8.69927
11.4893
-46.5708
-44.218
-3.86424
-9.69439
14.8947
-22.111
-74.1056
11.4623
11.6861
-28.7722
-3.35267
-28.9422
-19.1222
1.46983
-3.13413
-56.5598
-65.9363
-82.6095
-16.1792
2.60882
-1.14232
-0.357368
-0.259375
-26.9416
-1.35949
-15.7657
-15.1789
9.99099
9.81288
12.0807
-9.8093
-19.1354
-28.0751
-9.72292
-27.3731
-18.6616
-77.6451
7.22567
29.6757
13.0052
12.8209
13.2671
28.3785
13.6017
4.91263
-11.4595
-10.9572
-11.2952
-21.3265
-18.115
19.2881
5.91906
11.146
11.3182
-2.35434
10.6527
10.2969
-9.84135
17.1985
22.3173
4.67749
-1.47321
29.1584
-1.31846
-1.03736
-1.00403
16.8869
11.5005
-1.16762
7.31787
6.60488
11.0924
2.54719
-1.40531
-1.5103
-1.4891
8.70319
-20.5483
5.28128
-2.54025
-1.16451
8.16619
1.21281
7.35331
9.34946
-11.8819
-9.60334
5.60345
-11.7584
9.45764
5.94888
12.2829
-1.22902
17.9649
5.56128
14.4944
-1.42171
-2.01333
-1.68838
19.6983
-22.55
0.364681
9.66603
13.3974
-16.1108
-1.33737
-0.529319
0.227972
-1.27
-22.3812
-30.2559
-1.23985
1.96617
0.82977
2.23353
1.97956
2.70187
5.82724
-15.5868
-5.32893
-0.764423
5.16243
-1.53751
-1.60596
-16.0013
3.38368
-4.4677
23.7088
0.475107
0.88346
0.380477
0.614068
-1.42065
-1.28006
-17.2521
-1.12006
10.4944
-1.33608
-17.344
-13.6006
-1.80421
-1.6382
-13.3628
-14.1065
-33.3125
-1.85257
-1.61664
-1.69912
4.17896
-1.27364
-1.70135
-1.83481
-2.23852
0.0863546
-0.0224137
-33.9313
-26.3219
-24.1915
-24.1998
-26.4756
-1.08877
-1.11831
0.299517
-1.66765
-0.764154
-1.99266
-2.78273
-2.77825
-1.80746
4.5709
-10.0563
4.89389
2.85024
-2.58922
-2.36246
-2.31149
0.624306
-2.61148
-38.7689
-36.0911
-16.1141
-20.6536
-14.5881
5.37489
-11.1173
-1.94855
0.51182
-0.0348209
0.248096
-1.45516
0.362079
0.342104
-0.0207441
0.448809
0.259846
-0.958636
-0.067673
-1.54094
9.84095
-12.2551
-12.4898
7.48451
-12.8267
-12.4837
7.5825
-1.91986
-0.94794
-1.21626
-1.5785
0.497511
1.47386
8.65456
-0.824741
10.1403
4.20284
-4.31245
13.4338
-3.10249
-2.81223
2.21174
-1.52234
8.32431
13.5404
-4.56691
4.13779
-1.77204
-3.10534
-3.85932
11.1234
-3.28527
-1.07731
11.1003
4.55449
0.603024
0.47682
-1.61329
0.848031
-2.60676
-3.11465
2.03679
1.57064
14.8433
-4.42037
-2.02025
25.9725
-2.44413
-0.701998
1.42172
-15.4793
15.028
-15.1191
25.6379
5.6603
-1.34167
-0.87211
-1.14482
-1.22464
-0.126485
3.45769
-1.15972
-1.15417
-0.874427
0.377114
0.110725
-20.2851
-1.22662
-1.61117
-1.19587
-12.9718
-21.2304
-11.9124
-3.13339
-6.33625
15.4303
-1.42819
-1.23308
-12.9303
4.89104
2.11918
-2.80549
-20.1691
11.6536
15.9373
-5.67327
1.36008
1.01961
-10.4291
5.49557
0.0193452
-2.62323
3.80513
-1.50111
-1.76551
-9.38314
-2.22004
-1.30785
-7.87388
14.1649
-1.40519
-1.12615
-13.8592
-22.1225
-1.60925
-16.3022
14.2924
-2.42725
-2.62621
-0.55871
0.200863
-18.0757
-1.1167
-15.4597
-1.36146
-0.746929
-15.5901
-0.369631
-15.148
-10.2718
-16.4569
-16.0752
15.0236
12.6525
17.0188
8.34107
-43.6341
-0.961539
-0.762979
-1.62816
1.07058
-2.28076
14.2174
-15.5798
-15.1365
-0.861554
-3.08716
-15.2968
15.7837
-13.403
-12.1927
-11.4896
7.52795
-13.3407
13.8012
14.2086
14.4664
21.9224
1.19797
14.2752
0.915267
5.67393
-10.4779
8.28026
13.536
-10.4483
-11.9398
-1.15433
7.90319
-1.32851
-0.218182
-12.0115
-14.2613
-14.28
-16.9975
-17.1012
-0.50525
-17.4631
3.27319
-1.32782
-1.19265
-41.4095
-12.1051
-12.7847
-13.5979
-12.4441
-11.588
-0.514111
-11.998
-0.599654
-0.0551582
23.1185
24.1161
-22.0891
0.192733
-0.0477292
-11.3834
-0.363786
-2.05116
2.22647
-39.6897
-37.4249
-22.6333
-13.0933
-6.25789
-1.46963
-1.36529
4.79793
13.9488
-7.25984
-9.94363
-1.19699
-1.12678
3.25029
-13.3947
-0.937547
-22.482
-39.4697
4.09152
-13.3251
2.51171
-30.5575
-17.1039
-0.888988
17.9776
14.181
10.3246
10.2573
10.7217
-36.6493
1.88623
4.03668
-1.01349
-0.945061
-0.580706
-2.12731
-2.18844
-18.092
-17.343
-0.580938
2.69126
-0.290288
-29.9034
4.2863
1.32634
-9.88053
5.19668
-9.65298
-0.172756
-13.7729
-0.31861
-23.4203
-28.3205
-30.5976
-30.3857
3.62706
-47.4984
0.712829
-22.7382
-3.3612
3.68892
-49.1874
-47.1412
-19.7677
-2.79995
-3.47395
10.7516
-1.05404
10.7526
19.8081
10.8584
15.7865
-36.1167
15.5324
11.8994
11.7068
12.2496
12.2403
-111.48
-23.4245
0.543571
-2.08518
-10.1371
1.50447
-10.7402
1.1911
-3.5588
-1.4329
1.23747
0.903579
-1.18715
0.783728
17.1166
0.439219
-1.93499
4.98498
10.401
-0.0236562
-2.77285
-9.30095
-38.5657
-0.517985
9.81649
-1.00476
-32.2379
-0.639774
-2.61876
-35.9501
19.9832
-19.0871
-11.2988
-2.97097
-12.9077
-14.1146
18.6588
18.3407
-17.312
-19.7601
-2.05101
-19.0187
-2.89539
0.104808
-0.0940058
-2.91852
-2.70091
-3.01392
-25.1361
-1.58816
-1.44539
-1.27823
-0.61932
-2.7291
-2.31273
-1.00271
-2.7697
-0.94069
-44.5017
-2.73223
-2.09323
-45.3123
-14.2218
11.3582
-4.1411
-28.0252
-4.25273
-2.83
-1.46535
12.0403
-34.0799
-1.75476
1.22705
8.53013
9.82688
1.58723
-2.22714
-3.55652
-1.92989
-3.70834
9.73823
12.8778
-11.6653
-3.16702
-11.4404
-17.0436
-22.139
-3.37579
-41.3995
12.9693
-41.1716
20.0241
22.5131
12.28
12.6435
-43.8118
-5.35541
-1.18988
-1.14044
8.50003
-1.18554
-33.1904
-34.1275
-10.2006
9.1116
-20.2269
20.3733
-10.6313
-2.37221
-5.96158
20.0817
-5.99016
19.2463
18.2582
-2.88289
-40.8936
6.35851
14.468
0.514756
0.808872
14.3819
-10.0275
13.6433
22.6561
6.1394
11.6008
11.2757
-14.193
14.2838
-9.19327
32.7324
17.1306
6.4627
8.96168
-8.59045
11.8985
-1.74314
3.16954
10.6665
-3.17322
6.84068
6.47427
-0.424788
-0.163793
6.5809
-39.7914
-1.41614
-10.6465
-3.95571
-6.07023
6.84939
-24.9145
8.95349
-43.5091
-23.7938
-14.804
-14.4974
-14.5343
-1.19008
-43.8043
-11.5335
8.32547
-48.8008
-1.10539
-17.907
-47.1317
-6.3359
1.6589
-14.9226
-15.0176
-23.0682
3.14043
0.300888
6.78068
-4.96153
-5.13779
-9.91158
-8.08919
-19.8349
0.336567
-10.4986
-9.68753
0.0213105
5.92015
-3.90038
-3.28278
-9.48474
-3.1036
11.4999
-3.34242
-9.1159
-7.89811
-3.01706
-2.71339
-28.6434
1.86864
1.2599
6.08526
0.441916
1.01716
0.450884
0.225101
-22.5035
-22.7698
-28.6366
-11.3383
-35.3739
-2.4128
-2.42402
-36.1744
-4.25262
-10.8002
-23.4597
6.96512
15.8963
7.64079
7.44399
16.4609
-0.557939
16.388
17.962
-23.5627
-22.9302
-11.738
-5.69285
18.5807
-33.6821
-13.8028
-13.6399
3.42604
-0.861045
-2.86496
-6.28204
-7.42677
-22.0202
13.9427
-10.9853
-11.8493
3.06005
-18.1383
-18.5346
-18.5958
-11.6776
-10.0485
-58.2562
-3.06093
16.9494
-2.36817
-1.43547
-2.67824
-1.80705
-2.36252
-2.13516
-1.98567
-2.87938
16.2055
-0.671472
6.22746
7.12295
6.74024
1.60322
12.2521
12.2268
11.9048
-2.70409
-8.55335
-1.48454
-1.28994
3.96877
7.61189
4.78407
5.51428
-12.1085
2.86541
7.35451
2.98952
4.10806
3.6744
11.4014
-0.95571
7.6244
-1.11445
-3.2862
-36.6103
13.2206
4.98212
2.80025
-35.9572
-5.38242
-22.0177
-11.8132
4.3914
-2.6836
10.5624
-8.88344
5.6781
-1.80953
5.89878
-8.03509
6.35548
6.44018
0.131669
7.29537
-1.22319
5.61712
-9.33534
2.77151
6.64352
-3.79267
-3.9391
-20.4611
-1.97602
-19.7419
4.84464
1.40463
-20.5088
-7.36395
13.4455
13.4496
16.2565
-25.0509
-29.3358
-26.2856
25.953
-36.7199
-1.119
-48.98
0.20149
-0.741956
-9.8616
-1.11179
-51.2784
-25.5415
-15.1238
-50.0103
17.2742
16.9947
-73.9123
-52.3691
-17.9049
-18.5813
-26.7332
-27.3387
-1.90609
-27.4024
-27.8872
-1.39562
11.9916
-1.44649
-1.87382
-0.420268
-0.0679688
-26.0908
-2.60569
5.6802
-1.22052
-2.30356
9.45243
-27.1433
16.679
13.1407
-25.367
7.18534
-16.4984
7.26089
-0.675407
7.14068
-1.12425
7.44904
-16.6613
-15.4799
-1.58851
-1.4158
-28.5702
-30.1882
-42.5483
-12.6131
-6.85831
-1.53356
2.60074
-15.9972
16.8104
2.09837
-2.48384
-1.4493
-16.7171
-10.0079
-68.7676
-2.73041
-90.1038
-84.2158
0.881399
1.26228
0.946701
1.3013
-24.6812
-24.8843
-15.5362
7.03392
7.05757
-1.2012
-1.55628
-49.1986
-1.37851
-5.98561
10.5574
-0.974126
-17.7785
-15.245
-18.1153
1.02182
0.951128
-1.15517
6.41133
-1.51854
-1.20903
5.03708
-55.1503
-16.0944
-18.1083
-10.1859
-24.264
-10.3817
-2.15392
7.912
7.40072
24.6171
-7.53898
-5.93519
-4.9999
-74.6913
10.0562
9.80594
-13.8209
9.89652
6.25716
-17.5257
-10.4386
-8.16965
-22.3154
-2.06974
-0.793442
-0.854672
-2.69461
14.0932
12.2767
14.3138
-2.30265
-19.1474
7.08639
24.5635
-1.69082
-2.0639
-1.83683
10.307
10.6932
-58.7642
-1.35996
-1.70665
-2.99262
6.7927
-1.16007
-13.9738
-13.9344
-2.74726
13.9953
9.48322
-0.464221
-2.85552
11.3197
-14.9021
-0.7748
-1.67007
3.44805
-19.3387
-39.3271
-38.0227
5.50618
5.05175
-4.09392
10.2445
9.97546
-2.9188
-3.8314
-0.362027
13.1525
-14.4005
-14.037
-6.76644
-0.413184
-14.5152
-1.26551
-1.21655
6.60852
9.08956
9.1648
-5.8825
6.48341
-12.4211
3.31658
-5.53332
14.2876
-0.742778
14.2977
14.54
3.86578
14.6087
-1.03326
-0.963915
-5.07858
-13.4345
-4.96246
-0.99656
-1.14544
19.7342
-1.14018
-1.20346
-5.1999
22.4911
12.25
12.0681
-12.7265
-19.7627
-19.8963
-11.0553
-8.88162
-12.4013
-35.2201
-1.05617
-0.21548
-19.2272
-12.5737
7.4984
7.76166
7.80854
7.48069
7.94247
20.4914
15.2653
8.19462
7.55544
-1.778
-0.458829
-0.215339
16.878
-50.2893
-8.59066
5.16585
-112.327
13.3561
-12.7175
-34.1818
-33.8285
7.76583
-9.41809
-1.39622
-2.60741
-7.75992
-2.08453
16.0395
-9.13489
14.4121
-0.831795
-0.10671
21.0738
12.4289
15.6435
16.195
-8.16355
11.7925
6.39971
-14.0879
-13.9999
-14.0288
-12.3558
13.7586
13.8997
-6.56596
-29.3558
-45.4435
-8.21122
-69.6222
3.36216
6.72599
-10.2906
-26.6749
-2.88937
-56.4328
6.21956
-10.654
12.8843
-2.82026
-10.1464
-2.0949
-3.59936
-10.2415
-56.8091
-3.22333
-0.655577
-0.398955
-0.234477
-0.0334895
7.09849
2.09576
-0.247642
-0.456974
1.76058
11.274
-15.264
1.77359
-9.5303
-1.25245
-1.34405
-4.47679
-2.9507
11.2459
-15.3784
-33.4679
-24.532
-17.1087
-10.5551
21.8899
11.6225
-0.882291
-1.13146
14.4967
-22.0474
13.1284
21.2451
19.5218
20.5601
-59.155
-15.1063
0.81404
-98.797
18.1994
-9.5057
-9.71875
15.1863
18.8561
13.581
7.68445
4.65619
5.35232
5.63718
5.15916
-19.3514
-9.91103
-10.1271
-2.7873
-16.6236
-4.575
2.44635
-2.74481
-14.9585
-84.506
1.1352
0.0696657
-0.137116
-3.65695
-30.4109
-3.7683
4.26943
0.431283
-25.4987
-26.0338
16.512
5.18311
23.3825
22.2772
-4.42815
-3.98028
6.59484
-14.3539
-18.0085
-20.6656
-10.7807
-18.2263
-0.327479
-0.826577
-36.5587
7.67195
-18.8404
18.2074
7.80625
-13.5522
-18.4106
5.62089
-10.2907
5.05742
-10.5246
18.9714
7.44217
-12.9711
12.2557
-3.47419
8.81454
-1.35518
-3.59301
-1.20265
-13.7132
-14.7158
7.93317
-16.9135
8.11536
8.11439
-18.8162
-21.2365
5.92962
-17.8437
-11.7484
-12.3464
11.9092
12.9824
-21.8388
12.314
-33.5713
4.3362
-1.35305
-1.34676
-1.94047
-3.07984
-1.77637
5.05256
-17.1418
-11.3326
-17.5914
-2.03636
-21.4965
-2.29989
-13.7417
21.7763
-29.7423
20.797
-12.0932
-13.6561
-21.1159
-34.5773
-33.256
-21.2213
2.04465
6.55805
7.08476
13.9176
14.4204
6.12426
6.50472
-31.8827
-17.8735
-32.1857
15.2965
-1.79435
1.3773
-34.1708
-21.1774
-15.6059
-1.7121
7.14851
7.29297
1.35318
0.165658
-34.3942
-34.9793
-12.865
-15.5353
-11.1349
-1.33101
-0.251554
-11.2445
-1.75928
-1.58094
-11.72
-11.0813
-10.4708
6.93597
-10.3225
-34.9227
-13.6671
2.50612
-0.48031
-12.5459
2.2154
-17.0191
-13.319
-17.5554
-16.2549
-13.2865
4.31976
-37.6313
-36.9125
-38.0229
4.60771
12.3262
12.3522
-2.27828
12.8052
-10.6501
-21.387
0.532245
9.14559
-14.9749
9.41677
9.30807
-1.08358
-20.8703
9.35579
17.055
17.1639
-1.08812
9.52656
-13.6023
-16.8275
4.25719
-11.9174
-1.22347
-0.992257
-1.18889
-0.488685
-13.0879
4.07931
3.58056
-25.585
-14.4027
-24.9297
10.639
-13.3323
10.0041
15.5303
9.94971
-24.7522
10.233
10.3895
-3.85892
-16.4998
3.08671
9.16274
-28.1301
-14.295
-1.0166
-13.8889
9.05973
-13.4925
11.9211
-13.8403
9.27556
5.21946
-12.1219
15.8077
-13.5976
-14.5069
16.1946
11.0699
8.22202
11.5206
15.0525
-4.03316
-14.5612
-28.4818
-22.3003
-1.64473
-14.605
-11.88
6.10576
5.84818
-4.60217
-20.8188
20.4006
-12.6528
-27.7412
-0.554121
-0.794668
-0.606391
-0.452632
9.11214
-12.9559
8.95871
-31.7452
-3.9566
25.2632
-1.13341
-0.955378
10.9125
-0.882573
-15.5246
-3.05124
7.24755
11.0545
-20.6003
16.796
21.3599
9.9577
-21.952
9.51051
-1.14222
19.3552
-21.9531
18.9688
9.61828
-0.376319
-22.7307
17.2558
17.2021
-14.6539
11.4615
7.14084
-21.0685
-47.4235
-15.639
10.8185
11.1403
-8.65429
-11.8507
15.5346
16.3365
21.8909
-17.0013
19.8734
-13.3972
-10.8897
-15.5836
18.1912
-23.8395
-13.8638
-1.61148
-1.87735
-23.2983
-12.5024
-20.7475
-23.8895
-10.9104
-20.7292
6.39822
-24.7491
-8.57179
1.26941
-22.5675
0.330002
6.95336
5.88426
-50.2853
12.3881
-14.5883
-16.1796
0.947743
0.418782
11.2507
-15.1692
-32.1313
-34.2014
-17.0594
-18.6852
-26.6848
-30.0977
-19.2659
-220.365
-15.2168
-19.5123
-0.822627
-1.02885
-13.1949
-0.712299
-1.97488
-1.30928
14.8524
-19.2873
6.78901
14.8129
-9.92648
-1.06112
-16.035
-1.03272
-11.7629
11.2866
13.3593
-18.3183
12.869
13.726
15.1375
-33.0405
-31.7734
-30.7652
-15.9938
-26.9458
10.2279
-11.4937
9.74644
-15.508
-24.6737
-13.1136
-48.6994
-2.81202
-14.2029
-10.9601
-10.344
-2.92831
-12.0542
11.5155
-10.0679
5.33168
-9.99768
14.8557
-0.15669
-14.383
-13.9998
-13.7088
-15.4068
-40.6244
-14.6673
17.576
-11.3879
-14.7216
14.3231
10.4783
10.4458
-12.9433
20.6552
10.7733
12.8259
2.52823
-13.9884
2.94528
-15.9982
-14.2404
-13.0443
17.3849
1.22736
-12.9728
-37.6934
2.96398
1.28228
-29.0589
-23.648
16.9397
-28.5562
14.7266
5.52696
16.1959
-43.2166
-36.8473
-16.6586
-23.3901
11.5901
21.3294
14.4537
-11.1775
-20.9383
8.68177
-2.11579
8.38389
8.80014
-1.71155
-5.58282
-19.4658
-16.4736
-20.4434
-0.636643
-0.875238
-0.690927
-26.8689
13.417
13.4562
14.8742
-10.2414
-21.8701
-11.2947
1.02468
15.3048
-10.9865
4.00885
11.5588
-19.0935
-13.2313
15.3998
11.589
-0.979873
-12.8899
-12.9427
3.71107
7.23836
-13.5747
7.27793
-60.4298
-18.9024
21.7141
-0.311571
15.3286
16.831
-36.0259
-37.8217
-18.2193
8.19057
8.15054
-13.3051
-18.8442
-8.66698
4.34044
4.60442
11.8258
-13.7669
-15.7376
-12.0288
-27.1498
12.1717
-9.59332
-23.1469
6.85874
7.79527
8.33845
0.279212
8.43971
-0.362384
4.87295
-24.6398
11.7722
-13.2504
12.6803
-33.907
-20.4492
9.47103
-0.931012
10.3705
-30.8618
11.9083
11.9415
-42.2869
9.19622
12.2969
12.7256
-32.5848
-2.48683
10.9407
12.8041
12.409
13.9885
-37.6872
12.501
-28.5579
3.13122
-30.7969
3.9328
-32.4027
-12.9403
-17.0077
-16.9149
17.4349
-19.7941
-10.0916
-44.503
-10.2947
-0.997974
-26.2756
-14.5933
-38.3703
12.0483
-38.7295
9.33826
-40.9444
-16.1378
-18.5409
8.5971
-16.65
9.23338
-17.9316
-34.1206
-35.0134
-17.5828
-23.185
-23.0997
-16.2031
-23.4159
-23.0957
-14.0464
-25.0893
-21.4415
-26.2132
-4.80918
4.71497
-20.3674
15.2801
-50.451
-16.5093
-16.867
-2.08507
-16.7236
-49.4861
-17.2941
-26.6033
-1.86766
-16.1918
-12.8763
-21.4073
-13.2152
-9.32145
-11.4035
-42.5075
-25.1592
-25.3243
-17.4359
5.95036
-24.6722
-13.4084
-24.77
-14.6212
-15.304
-1.27707
-0.984026
-1.19747
-53.1679
-50.7215
-13.2982
-13.728
9.47638
-11.3714
-10.8422
-13.1053
-13.758
-15.1455
-18.475
-18.6331
-10.9801
-10.6351
-0.638906
-21.1408
-15.6665
-11.4145
-12.1999
-9.98899
15.3257
-20.6014
-65.1426
-17.1488
-17.6842
-20.6857
2.69543
-9.13159
-77.6563
-12.5317
-13.0413
11.8876
12.2404
11.6785
-11.0097
-16.4818
-59.553
-32.7696
-12.9107
1.88455
-1.52768
-61.0228
-7.9994
-43.386
8.14492
-23.621
-24.9158
2.92869
-24.7044
-25.6959
9.88025
-9.95917
2.98214
-32.7309
-14.8231
-14.4349
-28.4869
-11.6815
-14.2717
-13.2242
-17.6996
-46.1324
-0.588393
-4.82704
-7.78877
-25.6251
-11.9659
-21.8848
-39.9929
-38.9077
-0.298172
-0.26482
-41.5356
-19.7458
-3.95244
-35.776
-5.8151
8.31449
-16.1924
-16.2562
-40.9307
-12.4948
-16.8021
-53.5455
-13.9303
-28.6864
-28.6315
-17.3449
5.50477
5.57333
20.4492
-17.5132
21.0376
21.2253
-9.93519
-9.98244
-16.6667
-26.2858
-11.3926
-11.2436
-7.4576
-7.29798
-11.5063
-6.4744
-14.1686
-19.8781
-26.8825
13.809
13.9689
-12.3268
-16.964
-16.9697
-12.5156
-13.0044
-15.3823
-12.5847
-22.9164
-19.5293
-19.2488
0.470508
-18.8326
0.728202
-24.2742
-19.5425
4.82764
-18.083
-20.1071
-11.4246
-26.5876
-24.535
-14.5026
-10.8181
-35.824
-34.2088
-14.2457
4.97607
-13.9778
-16.8704
-14.514
-14.3446
9.3085
9.59762
-4.94887
-10.5202
5.42716
-9.90667
-10.3039
-16.9032
5.2139
-10.638
-9.7593
-10.9182
-10.5597
-59.2385
-16.4632
-24.2802
-10.1195
-11.0608
-11.6757
-27.0636
5.63657
-20.4777
-24.0935
-13.755
-39.8948
-17.1271
-17.2576
-11.8853
-23.5203
-22.1733
-21.5881
-29.9592
-13.6046
13.0557
-20.0777
-14.9471
-19.4518
-15.5055
-12.8557
-30.6323
-19.7556
-46.4179
-18.6802
-11.666
-16.1541
-35.5295
-37.965
-52.3424
-87.3427
-11.2765
-84.9674
-9.9533
-11.6027
-13.7742
-25.922
-15.3137
-9.97117
-17.9143
9.90397
-37.1014
-40.1847
-21.1196
-20.5469
-25.5901
-6.72464
-11.0982
-6.92079
-19.6768
-6.12759
-20.9286
-44.2956
-10.8787
2.15197
-9.91271
1.84505
8.83612
-33.2334
-13.4574
-10.2738
-10.9264
-14.012
-35.6588
-17.1936
-25.0434
-13.415
-13.6323
-14.6566
-12.9927
-12.787
-23.8771
-30.7553
-22.0834
-15.199
-17.2291
-14.7675
-15.1225
-15.1614
-13.1981
-6.82364
1.08482
-22.83
-12.2545
1.45366
-11.18
5.36959
-14.6937
-11.2776
-53.4573
)
;

boundaryField
{
    frontAndBack
    {
        type            empty;
    }
    outlet
    {
        type            freestreamPressure;
        freestreamValue uniform 0;
        value           nonuniform List<scalar> 7(-5.16446e-06 -2.50422e-06 -0.000105371 -8.99916e-05 -0.000524147 -0.0005131 -4.84604e-09);
    }
    walls
    {
        type            zeroGradient;
    }
    inlet
    {
        type            freestreamPressure;
        freestreamValue uniform 0;
        value           nonuniform List<scalar> 7(-1.04291 -1.14482 -0.50525 -0.937547 -2.09323 8.53013 9.82688);
    }
    airfoil
    {
        type            zeroGradient;
    }
}


// ************************************************************************* //
