/*--------------------------------*- C++ -*----------------------------------*\
| =========                 |                                                 |
| \\      /  F ield         | OpenFOAM: The Open Source CFD Toolbox           |
|  \\    /   O peration     | Version:  2206                                  |
|   \\  /    A nd           | Website:  www.openfoam.com                      |
|    \\/     M anipulation  |                                                 |
\*---------------------------------------------------------------------------*/
FoamFile
{
    version     2.0;
    format      ascii;
    arch        "LSB;label=32;scalar=64";
    class       surfaceScalarField;
    location    "233";
    object      phi;
}
// * * * * * * * * * * * * * * * * * * * * * * * * * * * * * * * * * * * * * //

dimensions      [0 3 -1 0 0 0 0];

oriented        oriented;

internalField   nonuniform List<scalar> 
3327
(
-0.0861456
2.08595
-1.9998
1.80769
-1.89384
-0.00858599
0.00117874
0.00740725
-0.0019942
-0.00659179
-0.0214427
0.00447776
0.0169649
-0.0167736
-0.00466905
-0.334915
0.438853
-0.103939
0.110693
-0.445608
0.00477505
-0.00477505
0.0176751
-0.00369364
-0.0139814
0.0176751
0.100327
-0.107162
0.00683505
-0.00275522
0.0181919
-0.0154367
0.0699105
0.0433564
-0.113267
0.03965
0.0606773
0.0594346
-0.251855
0.19242
0.218433
-0.158999
0.00117001
0.0230026
-0.0241726
-1.52569
-0.513602
2.03929
-0.00854299
0.00801582
0.000527171
-0.0134773
0.0179705
-0.0044932
0.00598083
-0.0194582
0.367004
-2.40725
2.04025
-1.85875
2.22576
0.208492
-2.19313
1.98464
-2.16479
2.37329
0.38482
-0.664985
0.280166
-0.0422136
0.0186288
0.0235848
0.367145
0.017675
-0.00458407
0.000267262
0.00431681
-0.00458407
0.213562
0.177246
-0.390808
-0.122336
0.335898
1.33348
-2.07837
0.744888
-0.707657
2.04114
0.207153
0.289696
-0.496848
-0.335583
0.542736
-0.78536
-0.191798
0.977158
0.560766
-1.34613
-1.73267
1.92172
-0.189046
-1.73267
-0.044244
0.114155
0.0118681
-0.0114768
-0.000391301
-0.00138577
0.0132539
-0.000985409
0.0379519
-0.0369665
0.0256926
-0.026678
-0.0261935
0.0108822
0.0153113
0.0141819
0.00578305
-0.0199649
-0.00464253
0.0188244
0.92576
-0.849408
-0.0763515
-0.00863974
-0.00996372
0.0186035
1.44804
-0.522277
-0.0139589
0.0139588
0.0260509
-0.00529692
-0.020754
0.107824
0.0368928
-0.144716
-0.0171119
0.0128712
0.00424072
0.0194713
-0.0183013
0.0058904
0.0412826
-0.047173
-0.00275523
0.139839
-0.0320152
-0.0192675
0.0251579
-0.109321
0.11493
-0.00560899
-0.00527764
-0.0118343
0.0111831
-0.0485851
0.037402
0.00361316
-0.00361316
-0.124358
2.39115
-2.26679
-2.4093
2.28495
0.0580035
-0.0468204
0.00244934
-0.0192229
0.0123404
-0.000698312
-0.0116421
0.0304566
-0.00903036
-0.0214262
-0.00770438
0.0196922
-0.0119878
-0.0631697
-0.0704657
0.133635
1.80769
0.0156828
-0.238438
0.222755
-0.0183262
0.0106219
-2.09879
0.355838
1.74296
-2.85577
0.756977
-0.195379
-0.669309
0.864687
0.976107
-1.17149
-0.410971
0.746808
-0.335837
0.051856
-0.462827
0.0188218
0.00722912
0.0216963
-0.00200409
0.00450184
-0.00450184
0.015387
0.00630934
0.00531732
0.00818891
-0.0135062
0.0127212
0.0204875
-0.0332087
0.00510049
-0.0142242
0.00912373
-0.0126995
0.0178
-0.0754599
0.0312159
-0.0170644
0.0139814
0.00308295
0.031543
-0.751251
-0.37
1.12125
-0.683915
-0.0673355
-0.0849796
0.618027
-0.533048
0.120778
-0.183948
-0.00378484
-0.00722998
0.0110148
1.24454
-1.32952
-0.00791476
0.00412992
-0.178195
0.00468271
0.173512
-0.0574166
0.596175
1.38291
-1.97908
0.0180233
-0.010803
-0.00722037
-0.00373655
-0.0011278
0.00486436
-0.0170644
2.046
-1.44982
-0.221413
-1.14185
1.36327
0.0104941
-0.010424
-7.01551e-05
0.0104941
0.891864
-1.11328
-0.225739
-0.0808035
0.306543
0.141405
-0.149992
-0.0809139
0.230906
0.145021
0.0927332
-0.237754
-0.0170644
-0.0391965
0.0573884
-0.111946
1.57244
-1.46049
0.00949444
-0.00392463
-0.00556981
0.234799
-0.0897775
-0.0981791
-0.051813
0.0152318
-0.00276911
-0.0124627
0.252949
0.382363
-0.635313
-0.205212
0.458162
-0.00373655
-0.0398392
0.000642689
-0.0719057
-0.0035542
0.0114745
0.00375735
-0.000185849
0.0207648
-0.0205789
-0.00365779
0.0200216
-0.0163638
-0.00242972
0.0302208
-0.027791
0.010424
-0.00878941
-0.00163456
0.158627
-0.263821
0.105194
0.0324291
-0.0348588
0.0148014
-0.00598893
-0.00881251
-1.08014
0.71014
-0.25487
-0.825271
0.0110153
-0.0112011
0.0138157
0.0182428
-0.0320585
0.0174786
-0.0367461
-0.102947
0.0370388
0.0659078
0.0876449
-0.0738292
0.0307424
-0.0338405
0.00309808
0.0103695
0.0309131
0.00484201
-0.00366327
-0.032736
0.0447021
-0.011966
-1.79003
-1.06574
0.785881
0.200202
-0.149066
-0.0511358
0.121405
1.12314
-0.0532331
0.0636026
0.178634
-0.131322
-0.0473122
0.238663
-0.0600289
-0.013519
0.00657354
0.00694547
0.00119419
0.0157569
-0.0169511
-0.000524354
0.0075198
-0.00699545
-0.0106622
0.0131404
-0.0024782
-0.0254797
-0.00204405
0.0275237
0.00280104
-0.0088741
0.00607306
-0.0195029
-0.00911213
0.0286151
2.08252
-0.227752
-1.85477
-0.0339764
0.0144734
0.0118531
0.0138705
-0.0257236
-0.312737
0.384661
-0.071924
0.026121
-0.000428384
-0.279239
-0.0334983
0.01066
-0.00785899
0.158995
0.426556
-0.585551
0.0627047
-0.00684578
-0.055859
0.00468151
-0.000323863
-0.00435765
0.00468151
-0.00766644
0.00184933
0.00581713
-0.00939845
0.0339818
0.391558
-0.42554
-0.0139589
0.0292034
0.00874857
-0.0130102
-0.0017002
-0.0068428
-0.00549369
-0.00801255
0.0135062
0.0445321
-0.0284109
-0.0161212
0.0169146
-0.0174661
0.000551485
-0.0133835
0.00939304
0.00399051
0.00723672
-0.00148739
-0.00574932
-0.00498285
-0.0141439
0.0191268
0.00877134
-0.0137542
0.00723673
0.0169146
0.015893
-0.00601724
-0.00987576
-0.0133835
-0.013334
-0.00210269
0.0154367
-0.915897
0.171036
0.744862
0.122441
0.0959928
0.215885
0.00432706
-0.0177053
0.0133783
-0.0163264
0.0206535
-0.0251979
-0.0131582
0.0383561
-0.0446999
0.0195019
-0.0302116
0.0249146
-0.0232023
-0.00700931
-0.0106079
0.0224468
-0.0118389
-0.0318805
0.0212726
0.0023699
-0.00786359
-0.0116554
-0.0115469
-0.013334
-0.0348851
0.0326449
0.00224022
0.0278536
-0.0315473
-0.0256688
-0.00921632
-0.00719101
-0.0375088
0.0177642
0.0148664
-0.0326306
-0.840428
0.667935
0.172493
-0.907099
0.0666711
-0.00766644
0.00278026
0.0187134
-0.0214937
0.00274487
0.0143047
-0.0170496
-0.0349855
0.00950581
-0.00648897
0.010445
-0.00395604
-0.0042431
-0.00332801
-0.0270886
0.0304166
0.00581713
-0.00581713
-0.00766644
-0.0759362
0.0196548
0.0562814
0.00275523
-0.0088016
0.00604635
-0.0105783
0.0133232
-0.0186771
0.00494525
0.0137318
0.000869855
-0.00431681
0.00344696
0.00112517
-0.0117874
-0.00792625
-0.000162055
0.00808831
-0.000542168
0.00794942
0.0979169
0.257397
-0.355314
0.00335514
-0.0112814
0.00878941
-0.00878941
0.000216088
0.00652455
-0.00674064
0.0144493
-0.0261047
0.0349837
-0.0205344
0.0258324
-0.0515012
0.00552365
-0.00327194
-0.00225171
-0.131679
0.00922512
0.122454
0.291612
-0.193695
0.139092
-0.032592
-0.1065
-0.0194457
0.0152026
0.00552365
0.132613
-0.0250683
-0.0903136
-0.041365
-0.0086351
0.00847305
-0.0129307
0.00429557
-0.0289739
-0.0555078
0.0844816
-0.0961353
-0.104104
0.200239
1.73228
0.333045
-2.06533
-0.000905295
-0.00415317
0.00505847
0.00420606
0.000509857
-0.00471592
0.182448
0.00420606
-0.0114615
0.0434619
-0.0320004
-0.0088016
-0.0775847
0.00164852
-0.131358
0.0410441
0.0116241
-0.01517
0.00354592
0.0169414
-0.0597212
-0.0178635
-0.0144117
0.00371523
0.0106964
0.00605493
-0.00368503
0.00744515
-0.00744514
-0.0181398
0.0312718
-0.013132
0.0488609
0.133588
-0.704757
-0.247832
0.952589
0.00232961
-0.0115388
0.00920922
-1.08857
0.383814
-0.0973852
0.037664
0.0445263
-0.0428778
0.00791833
-0.0611514
0.0185337
-0.0173395
-0.0353098
0.0281188
-0.0317259
0.0282831
0.00344278
-0.00470364
0.00703325
0.0310602
-0.0205963
-0.0104639
-0.0185693
-0.0276343
0.0462036
-0.0138915
0.0125951
0.00129646
0.0321753
-0.0507446
0.00808165
-0.0163321
0.00825043
0.00605493
-0.0154494
-0.00961889
0.038051
-0.133603
0.0955523
0.0349054
0.0230981
-0.0137694
0.0030437
0.0107257
-0.0158008
0.00203135
0.0199649
-0.0193251
-0.000639764
0.00582097
0.154269
0.0437983
-0.198067
0.0414313
-0.00652591
-0.00683326
0.00532221
0.00151105
-0.00397518
-0.000608897
0.0114487
-0.000954578
0.0114487
-0.0029399
-0.00853687
-0.0273155
-0.0756312
0.0092736
-0.0122135
0.00122476
-0.00805802
-0.0159149
0.00747999
0.0084349
-0.00251068
-0.0134042
-0.348076
-0.335839
-0.602946
0.421597
-0.488932
-0.666974
-0.0378095
0.00249967
0.0450283
-0.000496242
-0.0210793
0.0381515
-0.0170722
0.054
0.180799
-1.30996
0.168111
0.288008
-0.234008
0.0940851
-0.0560341
0.0430971
-0.0784195
0.0353223
0.0186391
-0.0113534
-0.00728568
-0.00795145
0.0175676
-0.00961616
-0.0296736
0.0527717
0.0547407
-1.36471
-0.031812
8.61336e-05
-0.0045944
0.0162123
-0.0116179
0.00731416
0.0234973
-0.0308115
2.03901
-1.8709
0.0216189
-0.00490426
0.0144892
-0.00958492
0.00873574
-0.01364
0.00792313
-0.015613
0.00768989
-0.00878055
0.0167037
0.0498343
-0.0795079
-0.00441867
0.00441866
-0.0366259
-0.0138681
0.0504939
0.0106876
0.0158235
0.00959405
-0.0254175
-0.0123345
-0.0111333
0.0234678
-0.766883
1.08624
-0.319362
-1.55662
0.789736
-0.0198329
0.00749843
-0.0062398
0.019111
-0.112418
0.059574
0.0528437
0.0300505
-0.00655318
0.296336
-0.262354
-0.131504
0.0333253
-0.00487212
-0.00215789
0.00703001
-0.00487212
0.0805796
-0.0374825
0.00897123
-0.00343886
0.00365495
-0.0148732
0.0249939
-0.0101208
-0.00343887
0.0122849
5.54431e-05
-0.011998
0.0143516
-0.00235361
-0.0131623
0.0135129
-0.00035056
-0.00496523
0.0330841
0.454963
-0.940006
-0.676021
1.61603
-0.0121962
0.0158748
-0.00367857
0.0418513
-0.0179254
0.00171293
0.0162125
-0.00441566
-0.0135098
-0.0181274
0.0198403
-0.0189706
0.000843159
-0.000968848
-0.0112274
0.0153298
-0.00131693
-0.0140129
0.00216751
0.536417
-0.576092
0.0396756
0.00974058
-0.0343093
0.00737352
0.0269357
0.0111932
0.00109173
0.0165203
-0.0169159
0.000395614
0.0136569
-0.0146257
0.0136569
-0.0131108
0.0321162
-0.0190054
0.581748
-0.0453313
0.00780227
0.0224445
-0.0302467
0.29787
-0.649964
0.352094
0.623773
-0.0420251
0.0115316
-0.0134349
0.00190324
0.00406298
0.0124573
0.00300174
-0.0199176
0.0133835
0.000575318
0.0365829
0.20208
1.94856
-1.3415
-0.607059
0.093161
1.60426
-1.69742
1.32618
-1.23302
-0.00516872
0.0237975
1.17599
-1.18588
0.00989319
0.0142233
-0.0393677
0.0251444
0.0572962
-0.0430729
0.0118576
0.0098754
-0.021733
0.0208536
-0.00899595
0.00198511
0.0157791
-0.0376668
-0.0756001
-0.0144851
0.0222874
0.0231998
0.00891635
-0.0329128
0.0324967
0.000416154
0.0180311
0.0345592
-0.0121147
-0.027019
0.0300207
-0.0113823
0.0104277
-0.0110537
0.0110537
-0.00147995
-0.0144966
0.0159765
-0.0232292
0.0217493
-0.0242409
0.00974431
0.0142311
-0.0142311
-0.0175753
-0.00666558
-0.0864278
0.00800832
-0.00188361
0.0120124
-0.0101288
0.00841282
-0.0102964
-0.010984
0.00898975
0.0196861
-0.0167041
0.00675727
0.00994679
-0.100876
-0.032727
-0.00464287
0.0201761
-0.0155332
0.0109143
-0.0155572
1.03085
0.0129842
0.00843734
-0.0214216
0.0260791
-0.0130948
0.000308859
0.00688728
-0.00719614
-0.0159364
-0.00696982
0.0229062
0.00484864
-0.0151084
0.0102598
0.0764016
-0.210366
0.133965
0.556836
0.00317744
-2.38701
-0.0202402
0.845205
1.19504
-0.292696
-1.82589
2.11859
0.00813108
-0.0240675
0.0147917
-0.0318006
0.017009
-1.83945
1.54675
0.110195
-0.0122206
-0.0979749
-0.12985
-0.0170888
0.444779
-0.267533
1.47397
-1.5311
0.0571266
0.533965
0.218043
-1.74914
0.00543044
-0.019322
0.0276051
0.00393793
-0.184892
0.235668
-0.0507766
-2.57262
1.86497
0.406302
1.63483
-0.0132466
0.273511
-0.00554296
-0.267968
0.00599569
-0.026592
-0.000990752
0.00626622
-0.00527547
0.00342276
-0.0031139
-0.0462986
-0.0401293
0.0026642
-0.00365495
0.0204675
-0.0144718
-0.199708
0.153206
0.0465024
0.0239533
-0.0219682
0.0396463
1.26238
-1.30202
0.00999247
0.0139608
-0.00269693
0.0184539
0.0117925
-0.0120974
0.000304864
-0.467694
-1.37176
1.44738
-1.91507
2.1979
-0.750524
-0.00771285
0.0061943
-0.000663385
-0.00553092
-0.41332
-0.453704
0.867024
-0.0149457
-0.0116462
-0.00879272
0.018537
0.00496415
-0.00778706
0.00282291
1.46742
-1.69195
0.224532
1.17878
0.269253
0.800594
-1.21391
-0.0102025
1.95876
0.0061943
0.00200884
-0.0210142
-1.48895
1.47875
-0.345621
-0.0302879
0.375909
-0.476971
0.766667
-0.0301975
-0.315424
-0.306895
0.276607
-0.270312
0.0115355
-0.0115355
0.00583401
2.78307
-2.28495
-0.49812
-1.91901
1.91901
0.86406
0.894447
0.273318
-1.61482
-0.0243532
-0.0374256
0.0617788
0.186334
-0.0186758
0.0140333
-0.890256
0.244398
0.645858
-0.117733
-0.772523
-0.983532
1.22793
-1.09548
1.44931
-0.0163182
0.0131635
0.0031547
-0.852318
-1.53469
0.00725325
0.0956605
-0.013522
0.0218269
-0.0083049
-0.00889593
0.0598503
-0.0509543
-1.08766
0.86429
0.223374
-0.110506
0.0199889
-0.0169452
0.0456391
-0.0545351
0.0423501
-0.0118955
-0.0304546
0.733101
1.5503
-2.2834
1.70875
0.489152
2.44185
0.307228
-0.230826
-0.0892057
0.377214
1.60432
-0.360254
-1.24407
1.28496
0.146853
1.13811
-1.12312
0.273714
-1.00126
0.924906
0.00961402
0.0621423
-0.0618768
-0.000265514
0.0153219
0.0224339
-0.0888166
0.0663826
-0.0394429
0.714405
-1.39043
-1.02528
1.73968
-0.0647654
-0.60022
-0.360056
0.270851
2.0359
-0.179342
-0.180715
0.0566497
0.81624
-0.87289
0.944502
-0.887852
2.0309
0.00484201
-0.171728
-0.0279803
-0.177376
0.00564743
1.01555
-0.0710472
-0.0755955
1.09114
-1.0967
1.02111
-0.910736
-0.418788
-0.280464
0.0245558
0.0132296
-0.0377855
0.0341699
0.0776843
0.0276329
-0.105317
0.0197229
0.0326446
-0.0523675
0.114577
0.0341679
-0.00588482
-0.135235
0.0238509
0.111384
-2.26672
1.02265
-1.21604
-0.814746
2.03078
0.110142
-2.04868
1.05563
-1.85362
0.797994
-0.611799
1.66743
-1.48147
0.869676
1.2548
0.317639
-0.226672
1.53598
0.19707
-1.73305
-2.0062
-0.0424829
0.0894669
-0.0802417
-0.0128103
-0.00198829
0.0147986
-0.0116694
-0.0011409
-0.0133758
0.012771
0.000604873
-0.000216607
-0.0114528
-0.00926566
0.00904905
-0.0158865
-1.84883
-0.288792
2.13762
-2.66129
0.995486
1.66581
0.73403
-2.58286
-1.92726
-1.12104
1.9851
-0.0597455
0.336352
0.0221546
-0.00344121
0.318412
1.31498
-1.63339
-0.0135247
0.0159741
-0.247744
0.0373782
0.570431
1.97474
-2.54517
-0.00689642
-1.92172
1.96649
-0.0447764
1.38293
-1.98999
0.00270895
0.0255023
-1.96649
2.52333
-0.096182
-2.08025
2.04613
0.0341266
-2.08025
0.0027185
1.87101
-1.45647
-0.414541
1.87101
0.0167552
-0.0140367
-0.0020969
0.789516
-1.66697
2.45648
-1.66697
-1.7551
1.46631
-1.7551
0.427914
-0.458111
0.454791
-0.0268779
0.00360712
-0.0205151
0.016908
2.15735
-1.58692
2.76584
0.00959682
0.00145686
2.16002
-0.609724
1.11459
1.04543
-0.0420571
0.00144039
0.00439362
0.0151724
-0.0115653
0.00488734
-0.00344696
0.00959682
-0.0170558
0.0143589
2.2415
-2.26174
0.163129
0.780935
1.78914
0.460846
1.07143
-1.53228
-1.55479
-0.230251
-0.0174934
1.95569
-0.884258
-0.125524
2.21147
-0.477265
-0.0373581
0.0231047
0.0142534
0.13699
-2.30178
-1.82769
1.96468
1.59009
0.0626876
-0.0824335
0.0197459
-0.0176352
-0.271274
0.0735624
0.197712
-2.046
-0.0342578
0.36245
-0.170202
-0.192248
-0.0213038
0.00721301
0.0140908
0.699656
-2.55841
1.72069
0.505068
0.0804105
-0.0177229
0.00669754
0.0274703
-0.00905975
-0.0061374
0.0151971
1.89384
-2.27908
0.385238
0.0435923
-0.0167231
-0.000743011
0.00537548
-0.0165844
0.0112089
0.100096
0.594704
-0.621582
-0.123167
-0.148108
0.0219764
2.33058
-0.634837
-0.214956
0.849792
0.0494937
-0.00426373
-0.0452299
2.44261
2.21196
0.230655
-0.0269109
-0.625561
-0.00927567
1.55156
0.0385323
0.00337377
-0.071562
0.0681882
0.0202675
-0.000796158
1.10928
-0.54851
1.95786
0.0208266
-0.0241546
0.018979
-0.0366142
0.998619
-0.104172
0.00377641
0.00845589
-0.0122323
0.0488495
-0.019091
-0.0297585
-0.884264
-1.61219
2.41019
-1.61219
-1.15198
0.698277
-0.104639
0.59474
-0.404453
-0.190287
0.00369131
0.00696872
0.258901
-0.230031
-0.00923936
0.516777
0.018789
-0.032007
0.013218
0.00105626
-0.00474129
0.00368503
0.0142888
-0.0105124
0.0169782
0.0710157
-0.0879939
0.0156819
-0.0156819
0.0213109
-0.00562903
0.0146257
0.00668522
0.0132892
-0.0132892
-0.00723673
-0.00982761
0.764328
1.67752
1.11922
1.0184
-1.41512
-1.41512
-1.47986
-1.06531
0.0232374
-0.00224155
-0.0209959
-0.0111709
0.0299599
-1.21775
-0.369618
1.58736
-2.04613
1.4364
0.0120665
-0.0159284
-0.00460372
0.105276
-0.100672
-0.0222436
-0.00856794
-0.0142277
-0.0016588
0.0201992
0.0279807
-0.0481799
-0.012435
0.0196446
-0.00720959
0.00285715
-0.0152922
0.0397374
-0.0163501
0.0148392
0.00151088
0.015995
-0.0131379
-1.04136
-0.691695
-0.0122581
0.00424553
0.0175403
0.00622045
0.0134241
-0.00124281
0.0244394
-0.0207007
-0.0037387
-1.91595
1.3333
0.582648
0.00331262
-0.177306
-1.73864
-1.66378
2.44472
-0.0614245
0.0361203
0.0253043
0.00769029
-0.0147374
0.00704713
0.0113719
-0.00368164
-0.018485
-0.0114719
0.029957
0.00870632
-0.0271913
0.910961
0.0251405
0.344461
1.61123
-1.48143
-0.0665223
0.0875888
-0.0210665
-0.0412253
0.0168492
0.0152724
-0.0321216
-0.00667199
0.00219587
-0.0937087
-0.85696
0.950669
0.0737386
-1.00661
0.912903
0.122902
-0.0604802
-0.0624215
-0.0135855
0.0135855
-0.00398871
-0.0102594
-0.000464885
0.0107243
-0.463685
-0.750229
-1.6967
0.00420618
-0.00420618
-1.04193
-0.654772
0.0955861
-0.0665875
0.00610734
0.0263414
-0.0131118
0.0218872
0.00445424
0.0102039
-0.0108673
0.0448298
-0.100205
0.205759
1.92645
-0.0169334
0.0236309
-0.010366
0.0165864
0.0139492
0.000297165
0.0087701
-0.00906727
-2.65375
1.80143
-1.86787
-0.0063576
-0.031068
0.036099
0.703306
0.0123864
0.0131563
-0.0255427
-0.016405
-0.00955785
0.0259628
0.0222198
-0.0262275
0.00400778
0.026555
-0.0329126
0.00232086
-0.0121749
0.00985407
-0.00408885
-0.000915225
0.00500408
-1.95997
0.918041
-0.00236558
-0.0241883
0.0454555
-0.0212673
-0.0403818
0.0161936
-0.0208799
0.0342735
0.334355
-0.192949
-1.76708
1.64156
-1.88524
0.118155
1.57053
-1.2399
-0.330626
1.05693
0.0237249
0.0740886
-0.0978135
-0.00408885
-1.66695
1.00526
0.661691
-0.488168
-0.0197156
0.0220365
0.00849904
-0.024904
0.32494
1.34249
-0.00119851
-0.00489287
0.00609137
0.0274111
-0.00543471
0.00489287
-0.0045957
-1.30641
1.63135
-0.00574931
0.00574932
-1.79458
0.03808
0.0768504
0.0633044
-0.0252244
-0.0177068
0.0514089
-0.0353318
-0.00842962
0.0071127
0.242296
-0.123968
-0.118328
0.0142297
0.106929
0.348034
0.0026845
-0.0380163
0.00842962
-0.000332545
-0.00809706
-0.0207249
0.300094
-1.18795
-0.431233
0.538163
-0.0135247
0.152518
-0.00679151
-0.0124314
-0.0183227
0.000927907
0.0173948
0.0219117
-0.00443304
0.0136012
-0.0167215
0.00312036
0.0107511
-0.0144848
0.00373366
0.0105684
0.000182787
0.0105
0.0043014
-0.00398476
0.0491371
-0.0643169
0.0151798
0.0419419
0.009421
0.0231722
-0.0325932
0.333852
0.0112719
-0.013275
0.00200311
-0.00173131
-2.4093
-0.873419
1.1709
-0.297477
-0.288173
-0.361791
-0.821221
-0.180752
0.460917
-0.0193537
0.0183172
0.00103652
-2.30928
0.0104778
0.27711
-0.457861
-1.82769
0.00489287
-0.00706501
0.040699
-0.033634
-0.0782048
0.00378109
0.0416744
-0.0814899
0.00737365
-0.0340517
0.160173
-0.339515
-0.0248723
0.0226032
0.00226908
-0.00955135
-0.0415753
0.0558287
0.0588723
0.0287165
0.508207
-0.0622918
-0.00753641
-0.0406435
0.00358379
0.015543
-0.0146746
0.0182584
-0.0551484
0.0791948
-0.0240465
-0.00893066
0.168576
-0.362272
-0.064079
0.327571
-1.67963
0.558587
-1.77933
-0.824306
0.899378
-0.0750723
0.421451
0.191037
-0.612488
-2.27908
0.0130002
-0.0115025
-0.00149763
1.96468
-0.440476
-0.408066
-2.81756
2.4095
0.209575
2.15735
0.0178268
-0.0377387
0.0199119
0.0332746
-0.0154478
-0.0836866
0.00125313
-0.00132293
0.0143737
-0.0130508
0.118932
0.307625
0.0168926
-0.01838
-0.248938
0.36787
0.262205
-0.273771
0.011566
0.037216
0.0382922
-0.0755082
-0.0578859
-1.45647
1.1804
1.58692
1.4364
1.46631
0.0100236
0.00549422
-0.0155179
0.0134064
-0.0219743
-0.918221
-0.0036432
-0.0315544
-0.00615767
0.0377121
0.000185451
0.0412459
-0.440421
-0.4778
0.00405127
-0.0164943
0.012443
-0.00600494
0.0160286
-0.0111188
-0.0197563
0.0197563
-0.0188284
-0.0157175
0.0117328
-0.0102233
-0.0143267
0.144815
-0.0571698
1.33124
-0.0688647
0.267726
-1.15198
-0.0472748
0.033727
0.0135477
1.38577
-1.11805
0.00184516
-0.0175363
0.0156911
0.0120884
-0.0102432
0.0213347
-0.0104526
-0.0411079
-0.00616687
-0.0121671
0.0164079
0.0200627
-0.0142797
0.00136542
0.0199693
0.00993854
-0.00993852
0.00863248
0.0114303
-0.10485
-0.00807159
-0.0289645
0.0208929
0.23609
0.613703
0.00817004
-0.0192888
0.018691
0.00255566
-0.0212466
0.0173408
-0.0173408
0.448236
-0.372985
0.00165891
0.00268787
0.0134074
-0.0301208
0.0167134
-0.000551485
-0.013121
0.0768659
-0.0468439
-0.00407145
0.00472118
-0.000649737
-0.011479
0.00630102
0.00430662
0.0154497
-0.0211268
0.00800578
0.0127301
0.00630102
-0.0214796
0.0685871
-0.0471075
0.517092
-0.470921
-0.0461709
-0.0414471
-0.101721
0.657541
0.0174188
-0.00857188
-0.00884691
-0.00581763
-0.0112829
0.0171005
-0.181853
-0.883994
0.733797
0.150197
0.0116012
0.0213263
-0.99877
0.091671
0.02717
-0.0648368
0.00769829
-0.0169146
-0.00769829
0.00769829
-0.0154947
0.00421184
0.0291671
-0.00506085
-0.0241062
0.019612
-0.0607199
-0.0176555
-0.00163332
0.00863264
-0.0120551
0.0686772
-0.0566222
-0.0130111
-0.0140775
0.0169488
-0.0230354
0.00537989
0.00257113
-0.00842728
0.00585615
0.0758934
-0.00405825
-0.0129182
0.0169765
-1.13372
-0.85627
-0.038481
0.00692655
-0.0270936
-0.253115
0.0330836
0.220032
-0.00902878
0.00702469
-0.00977044
0.0050668
-0.00393358
-0.00583685
0.00983242
-0.00960204
-0.000230387
0.0866869
0.905573
-0.00994789
-0.0111789
0.0283859
-0.22473
-0.0867121
0.140263
-0.053551
0.0484021
0.0141908
0.0184542
-0.860809
0.643102
0.217706
0.0146633
-0.0104178
0.014882
-0.000218651
-0.00947858
-0.85133
-0.00953641
0.00953641
-0.100775
0.608236
-0.507462
0.661431
-0.762205
0.00136297
0.728989
-0.0675586
0.0211065
-0.0204729
-0.000633601
0.288568
-0.251183
0.213783
0.0373999
0.133478
-0.0824294
0.00741694
-0.00774081
-0.492242
0.411439
-0.575797
1.91829
1.83439
0.289402
1.83439
0.594592
-0.0147317
0.0140334
-0.00827509
-0.0064566
0.00702564
-0.00793395
0.000258856
0.00767509
-0.00244892
0.0160501
-0.379028
-0.0141755
0.393204
0.129179
0.0118339
-0.0142828
-0.108306
0.0494894
-0.136201
0.00656705
0.00102908
-0.00759613
-0.0185198
-0.00952824
-0.00994772
0.019476
0.0460437
-0.124523
-0.00803937
0.0138368
-0.00579741
1.29656
0.334798
-0.0216444
-0.00418924
-0.00430025
0.00190507
-0.00983902
-0.163725
-0.0019293
0.0510664
0.00683572
0.00350452
-0.0103402
0.0112961
-0.00446042
-0.0119696
-0.0063566
0.043754
1.2528
-0.268575
-0.107671
-0.160904
0.0420781
-0.0574199
0.0153418
0.123228
-0.116456
-0.0210294
0.0192029
0.0624373
0.0111218
-0.0735592
-0.0192781
-0.011736
0.0136411
0.0129859
-0.00421581
-0.00370367
0.035879
-0.327949
0.0178385
-0.00238882
-0.0154497
-0.481962
-0.343309
0.179929
2.15065
-0.496137
2.33728
2.33728
0.556428
0.464681
-0.760518
1.31695
-0.0720279
0.0178385
0.0442016
1.27077
-0.0689953
0.0226968
0.0044998
-0.0334248
-0.0355705
0.00581948
-0.0119569
-0.00105478
0.0134048
-0.01235
0.010678
0.0963728
-0.0957733
-0.000599499
0.0384845
0.0578883
-0.780128
-0.405754
0.55639
1.05964
-0.0789295
0.0205444
-0.00547445
-0.01507
-0.149708
0.0183865
-0.182435
-0.0926046
-0.348706
0.0332826
0.0100849
0.0104596
-0.226122
-0.122584
-0.109776
-0.174565
0.284341
-0.0153597
-0.881726
0.095582
0.786144
0.0204518
-0.0159741
-0.872856
-0.00886957
-0.166239
-0.00972039
0.00852983
0.00119056
0.010393
0.0100588
0.0707131
-0.0582231
-0.332585
-0.00757612
-0.00214427
-0.334372
-0.0904557
0.424827
0.0254261
-0.0181969
-0.00821649
0.010393
-0.180583
0.0255833
-0.528357
-0.643128
-0.00510254
-0.0122281
0.0173306
-0.146969
0.200748
-0.053779
0.00241151
-0.0146396
0.0191181
-0.0211622
0.0243359
-0.219493
0.0725244
0.00581948
-0.0183424
0.0252354
-0.00689298
0.408603
0.00153315
0.00737379
-0.00890693
-1.59252
1.06417
0.0130795
-0.0115464
0.113939
-0.450546
0.0027856
0.0102939
0.0491049
-0.0476515
-0.00145348
0.0154344
0.00411446
-0.0195489
0.000648796
0.0147856
0.0170658
-0.00128669
0.0849558
-0.0868851
0.0793468
-0.0109619
0.00136274
0.00959918
-0.0154984
0.0517125
-0.0650008
-1.08698
-0.013329
0.0129965
-1.14074
-1.67682
1.30398
-1.59728
-0.00106705
0.00809706
-0.00703001
-0.00475897
0.00512078
-0.000361813
0.0201481
-0.0104646
-0.00286441
0.0150471
-0.0215844
0.00653729
-0.0307226
0.00226446
0.0149985
-0.012734
-0.00059174
-0.0136325
-0.0115537
1.17482
-0.0172903
-0.018676
-0.122578
-0.317898
0.0562775
-0.0141994
0.394514
-1.00751
0.485234
0.00937856
1.23861
0.0495875
-1.28819
0.0883537
-1.96874
1.5387
0.00531612
0.0175901
-0.00475897
-0.020251
0.011404
-0.0289968
-0.948494
-0.00409068
2.49245
-0.0335547
-0.00432982
0.0378845
0.0653268
0.0532717
-0.00419559
-0.0443895
-0.0411621
0.00106325
0.0124496
-0.0294738
0.00173147
0.0277424
0.00863146
0.0404735
0.322195
0.0396131
-0.0227882
-0.0168249
-0.135916
-1.46765
0.723844
-1.50397
-0.00397518
0.0404102
-0.0125565
0.00968755
-0.00928495
0.0189725
0.915211
-0.793806
0.545283
-1.23698
-0.00548755
-0.00755429
0.0130418
0.00751263
0.029469
0.0101441
0.000775722
0.0160777
-0.015302
1.09538
0.0755146
0.877345
-0.0122347
0.0633012
0.689627
-0.0173807
0.0260122
-0.0446898
-0.000990319
-0.0153278
0.0233366
0.00613238
0.0333014
-0.0263748
-0.0276615
0.957755
0.0138602
0.0138602
0.0284643
-0.0328469
0.0100587
0.0140082
-0.00925114
0.0106141
-0.00248842
0.014385
-0.0118966
0.0042551
-0.3054
-0.578864
-0.0377547
0.0154901
-0.0111218
0.0595239
-0.0261682
-0.0821374
-0.0333557
0.0139344
-0.00252012
0.0164545
-0.00583614
-0.0080188
0.0138549
-0.0170427
0.0145226
0.00179992
0.0122082
0.00298447
-0.0203652
0.0323401
-0.00184774
0.0158811
1.53278
0.250406
-2.25021
-2.24927
0.0172323
-0.0105471
0.00603931
-0.0163419
0.0092888
0.0070531
0.0473903
0.00939304
-2.9998
-0.930961
-0.0637577
-0.0260937
0.00816398
0.0218567
2.09136
0.0206307
0.0088016
0.00553579
0.0456658
0.0897076
-0.0436639
0.256576
0.911029
-0.866828
-0.0196062
0.0222907
-0.0154367
0.00191566
-0.00840462
0.00576174
-0.00384608
0.0100307
0.00150472
0.0100307
0.71893
0.0220257
-0.0147724
0.00498297
0.24113
-0.834086
0.673526
0.16056
-0.0100752
0.0141896
0.0337991
-0.0413355
0.00167748
-0.147499
-0.843564
-0.127222
0.0654149
0.0618072
-0.213196
0.0142281
0.0331622
-0.00953934
-0.00978266
-0.013955
-0.292151
0.385274
-0.0931232
0.0168296
-0.0125304
0.00116765
-0.293319
-0.019064
0.0061537
0.0129103
-0.00109729
0.0128898
-0.0103567
-0.00870724
-0.0119569
-0.011454
-0.0917786
1.15585
-1.06407
-1.16152
1.06974
-0.0536597
0.0879551
-0.235455
0.57904
-0.948657
-1.27856
-0.0234638
0.00935295
1.26867
0.022085
-0.0127321
-0.00181654
0.0155262
-0.0137097
-0.0205971
0.0187805
0.0248089
-0.0236488
-0.00116009
-0.00993854
-0.00630102
0.00934668
0.00248718
-0.0272388
0.317598
0.0163562
0.00845267
-0.0160693
-0.00512095
0.0211903
0.00126035
-0.0173297
0.0262831
-0.0110805
0.0541127
-0.0203857
-4.49449e-05
-0.0137092
-0.0159021
0.00837901
0.00752312
0.0308942
-0.0399246
0.00686043
0.0472522
1.84996
1.83448
-1.57791
-0.654494
0.012464
-0.0114275
0.00609136
0.0499193
0.00839022
-0.0176751
0.0281945
-0.00269219
0.00818961
0.00786046
0.00342276
-0.40003
0.209743
1.89955
0.030546
0.658659
0.00971641
0.00412037
-0.00361316
0.00913845
-0.0206174
2.36247
-0.151006
1.7077
0.0151462
-0.00371599
0.00743565
-0.00654208
0.0162585
-0.00489845
0.0183032
0.121332
-0.133552
0.00872123
-0.00285196
-0.00586927
-3.67696e-05
0.008758
-0.00970886
0.00490441
0.00480445
0.00858994
-0.0105782
-0.0226409
0.0138482
-0.0097511
-0.00118365
-0.00655715
0.00418309
0.00292962
-0.0071127
-0.130358
0.0119038
-0.00784077
-0.289049
-0.00516895
0.0185158
-0.00518658
0.0232177
0.00487212
0.00703165
1.96204
-0.00669892
-0.00680733
-0.0643326
-0.697873
0.413813
1.33185
0.581625
-0.570356
0.0165728
-0.0182316
0.234368
-0.501902
-1.65669
-0.0102795
-1.65669
0.586462
-0.00194231
-0.0115824
0.00407145
0.0014522
-0.183909
1.70011
-1.68456
0.30054
-0.00440702
0.00776217
-0.00436783
0.00559259
0.0104691
-0.00711746
0.00620223
-0.00805014
0.0137499
-0.00016433
-0.0115824
-0.356114
-1.27727
-1.38139
-0.0198543
0.0180066
0.00846185
0.0137499
-0.00507856
-0.0146299
-0.00327194
-0.21775
0.310483
0.00839022
-0.00418959
-0.0145676
0.0138347
0.000732916
-0.00799409
0.0285542
-0.0476452
-0.00352715
0.0534464
0.00232476
0.0147311
0.00259952
0.0243141
0.00262002
0.0095073
0.00702469
-0.00702469
0.0443363
0.408652
-0.499108
-0.120012
0.0390983
0.0100136
-0.00192531
-0.000945099
0.0822642
-0.200592
-0.15549
-0.013334
-0.102841
-0.00222199
0.0075442
0.172259
0.0100111
-0.000632565
0.00732207
-0.00542216
0.209637
0.0115014
-0.0357886
0.444441
-0.54325
0.0851142
0.00418129
-0.107886
0.0399023
0.0679839
0.00788365
0.010347
-0.0187167
0.00338889
-0.00436783
-0.0188787
0.0207633
-0.0063738
-0.0225907
-0.0138096
-0.00669837
0.00523966
0.00145871
0.00204653
-0.0611036
0.019768
-0.00930705
0.0155431
-0.0149383
-0.00142903
0.0109764
0.607583
-0.698088
0.0905051
-0.0318902
1.69054
0.268221
-0.00551793
-0.00118044
-0.0154779
0.00823428
0.00724365
-0.015566
0.0794155
0.0019429
-0.0175089
-0.0118667
0.0119662
-0.119852
0.0105134
-0.00871348
0.0133243
-0.0169675
-0.00434451
0.00949235
0.00416453
0.00157625
0.00415317
-0.00572942
0.00949235
0.00524437
-0.0133024
-0.0162051
0.00367471
-0.676133
-0.50364
-1.22199
-0.0843855
-0.00125424
-0.0149508
0.00887679
0.00163661
0.00274597
-0.00230134
-0.00481612
2.3813
-0.00944893
0.00854364
-0.00411623
0.00935589
0.0146749
-0.00435765
-0.00124908
0.00496269
-0.00496269
-0.00787268
0.00436783
0.00121398
-0.00558181
-2.07452e-05
0.00856438
0.277496
-0.0754157
-0.0116818
0.0961634
-0.031069
-0.00591113
-0.177714
0.126937
-0.219079
-0.0195151
0.00180832
-0.0197136
0.000198469
0.0160005
1.03394
0.00337165
-0.012611
-0.015473
0.0733058
-0.00480804
0.00558181
-0.000773768
-0.00480804
0.00114041
0.00466793
-0.00580834
-0.000924988
-0.0026642
0.00358919
-0.890974
-0.140263
0.0447357
0.0175276
-0.0622633
-1.74724
-0.690319
0.00534124
-0.0163479
0.0191632
0.0151103
0.00402824
-0.00814448
0.0522442
1.34006
-0.00327826
-0.0257961
0.0241406
0.00165555
0.00750529
-0.0216697
0.0115869
0.0100828
-0.0097188
0.0134833
-0.00376454
0.0140731
0.000219927
-0.0114139
-0.00286889
-0.0111939
0.0239432
-0.00987452
-0.0107225
0.0118748
0.00525397
-0.0167279
0.00379391
0.0216322
0.716408
-0.0186328