/*--------------------------------*- C++ -*----------------------------------*\
| =========                 |                                                 |
| \\      /  F ield         | OpenFOAM: The Open Source CFD Toolbox           |
|  \\    /   O peration     | Version:  2206                                  |
|   \\  /    A nd           | Website:  www.openfoam.com                      |
|    \\/     M anipulation  |                                                 |
\*---------------------------------------------------------------------------*/
FoamFile
{
    version     2.0;
    format      ascii;
    arch        "LSB;label=32;scalar=64";
    class       volVectorField;
    location    "233";
    object      U;
}
// * * * * * * * * * * * * * * * * * * * * * * * * * * * * * * * * * * * * * //

dimensions      [0 1 -1 0 0 0 0];

internalField   nonuniform List<vector> 
2283
(
(10.0389 -0.0189104 1.71503e-18)
(9.75895 -0.00509018 5.49219e-17)
(6.03968 -1.07015 -5.00831e-18)
(6.2857 -1.08612 4.93068e-18)
(7.59062 -1.19197 0)
(7.62275 -1.27376 0)
(9.34204 -0.0622002 0)
(9.29604 -0.0143624 -1.37347e-18)
(3.70677 -0.685304 -1.96194e-18)
(19.1056 6.29795 0)
(16.8721 4.13481 3.08618e-18)
(7.88281 0.59492 -5.84099e-17)
(6.96219 0.629621 -6.33462e-18)
(9.66028 -0.954894 6.45231e-18)
(7.6758 0.446821 -1.14315e-17)
(8.82107 0.866323 0)
(9.00612 0.914238 2.1506e-18)
(7.30202 -0.543951 8.14547e-20)
(9.9259 0.00862459 0)
(7.24863 -1.22948 -5.70799e-18)
(8.60707 -1.35661 2.36411e-18)
(8.32878 -1.34173 0)
(9.04405 0.0242752 4.53252e-17)
(8.99356 0.0154864 -1.0789e-16)
(9.34602 -0.0385404 0)
(10.0863 0.00882412 6.27282e-17)
(8.80715 0.298163 0)
(10.9018 -0.999852 0)
(8.742 0.270719 0)
(5.4063 -0.938043 1.6754e-18)
(3.63198 -0.619927 -5.48555e-18)
(8.49103 0.0392309 0)
(8.43313 -0.0108628 -2.77747e-18)
(8.77289 0.046024 -2.38952e-17)
(9.09876 0.0110652 0)
(8.66824 -0.189897 -8.35291e-18)
(8.7207 -0.235068 0)
(8.89464 0.110242 1.42885e-17)
(8.92365 0.120546 -1.98241e-17)
(9.70339 -0.0123402 -9.94658e-17)
(6.53277 -0.061135 1.12049e-16)
(9.53869 -1.04465 -9.13359e-18)
(8.83081 -1.41656 2.08151e-18)
(9.27542 -1.45277 -3.6664e-18)
(11.2033 -0.82375 4.9918e-18)
(11.2548 -0.955204 0)
(7.53938 -1.4368 3.02237e-18)
(5.82028 0.351075 -1.56948e-18)
(5.63152 0.147618 0)
(8.76167 -0.0883872 -6.54991e-19)
(7.6055 -1.1917 3.92264e-18)
(8.80987 -0.0954027 1.50463e-19)
(9.72883 -0.384996 5.83687e-19)
(10.5165 -1.21151 2.7752e-18)
(10.2615 0.0219061 -2.53107e-18)
(9.74515 -1.44512 -5.00353e-18)
(7.25953 -0.597535 0)
(7.29713 -0.227581 0)
(3.8584 -0.619667 0)
(10.1497 -0.0797959 2.70791e-17)
(7.23121 -0.297096 -8.3527e-18)
(11.094 1.34401 -1.14053e-17)
(9.81415 -1.43037 0)
(11.2005 -0.584245 1.41787e-17)
(3.71328 -0.668149 -1.64831e-18)
(9.82801 0.0778283 -1.00498e-17)
(10.0752 0.065257 1.04302e-16)
(11.1452 -0.463957 0)
(7.4684 -1.25528 -2.13687e-18)
(9.02376 -1.43436 3.01242e-18)
(7.98421 -0.85576 -2.72211e-18)
(8.51529 -1.34479 -2.94763e-19)
(9.63708 1.6592 2.73906e-17)
(6.55806 -0.0113507 3.44386e-17)
(9.30698 -0.671536 -3.14112e-17)
(8.56946 -1.29393 0)
(8.84862 0.0266973 1.34993e-18)
(8.77368 0.107296 1.84388e-18)
(8.99565 0.103796 0)
(9.02505 0.0788625 0)
(8.87027 -0.259741 1.22012e-18)
(8.89728 -0.281968 0)
(10.4448 -1.23088 -1.43398e-18)
(8.33116 -1.3672 5.15283e-20)
(3.65329 -0.836887 2.7228e-18)
(8.49686 -1.37618 2.34395e-19)
(11.4951 -1.4497 1.62133e-19)
(10.4501 -1.12686 0)
(10.1247 -1.48563 1.65226e-20)
(10.425 -1.44399 1.88918e-18)
(9.50696 -1.13237 0)
(15.4328 8.60353 0)
(10.402 -1.19097 0)
(8.86102 -0.203741 -1.21696e-17)
(8.75657 -0.23278 0)
(8.68563 -0.0159958 1.27249e-17)
(9.65713 1.29298 -2.09908e-17)
(7.48591 -1.30802 2.84162e-18)
(8.8537 -0.0303968 -4.12494e-17)
(6.81737 -1.21048 -4.17019e-18)
(10.3491 1.01967 -2.23083e-17)
(9.95012 1.06134 4.1652e-17)
(10.3596 -0.298219 4.5557e-17)
(10.0161 -1.44911 0)
(5.74828 -0.985099 0)
(10.0653 6.97248 0)
(9.41112 -0.0447759 -1.35811e-16)
(9.47364 -0.00505082 2.22998e-18)
(7.1019 -1.13287 0)
(4.82358 -0.777634 0)
(9.16607 0.00692025 -6.72871e-17)
(8.61097 0.248651 1.3313e-17)
(8.68244 0.302664 -1.14046e-17)
(8.65813 -0.675654 -5.41228e-18)
(8.86468 -0.516775 -4.8784e-19)
(10.1137 6.65128 3.22872e-19)
(7.16028 0.449856 1.29705e-17)
(9.46002 -0.000419588 -2.12999e-17)
(7.86539 -1.38686 0)
(8.60189 -0.432747 7.31956e-20)
(8.55961 -0.579863 -4.20239e-18)
(9.41502 -1.45016 4.35753e-18)
(8.96787 0.270981 5.94118e-19)
(9.00615 0.296496 -4.57633e-18)
(3.66561 -0.694432 -3.80804e-18)
(8.35003 -1.21748 -1.55531e-17)
(9.57825 -1.12927 7.81825e-18)
(9.24659 -1.45659 0)
(7.86113 -1.30371 0)
(10.7016 -1.41117 2.20732e-18)
(8.26094 -1.09038 2.51459e-18)
(7.09969 -0.91714 0)
(4.72166 -0.598182 -1.90517e-18)
(9.36159 -0.469118 0)
(8.25844 -1.02621 0)
(7.40281 -0.973325 -1.13912e-18)
(9.04272 -0.15974 -3.10243e-17)
(9.05383 -0.17951 -6.95068e-18)
(7.24765 -1.24379 0)
(4.27783 -1.43018 3.08287e-18)
(7.14931 -0.280778 4.16006e-18)
(7.90366 -0.747478 1.14072e-17)
(7.28317 -0.920236 2.80825e-18)
(8.0177 -0.946376 0)
(7.38158 -0.322424 -3.61975e-18)
(5.30224 -1.10529 0)
(11.6613 -0.0048189 4.80929e-18)
(8.86811 0.137194 3.89859e-17)
(9.01104 -0.0288012 0)
(9.11656 -1.04155 1.66224e-17)
(8.99366 -0.0129975 3.15876e-17)
(7.48872 -0.277179 -2.39713e-18)
(8.42069 -0.37534 -3.38657e-17)
(8.49968 -0.462549 0)
(7.60179 -1.26841 -6.37836e-18)
(8.22222 -1.28996 0)
(6.80769 -1.19092 3.79031e-18)
(6.27131 -1.11707 0)
(8.12891 -1.0276 -2.96983e-18)
(7.62171 -1.29379 -3.62458e-18)
(7.12338 -0.0746864 -5.65874e-18)
(10.138 -0.057623 -1.21662e-16)
(7.01174 0.0125626 1.03932e-17)
(11.6433 -1.21952 6.87868e-18)
(9.66935 0.344869 -2.04163e-17)
(11.2084 -1.04468 9.59478e-19)
(9.51111 0.347696 9.11436e-18)
(8.04993 -1.34448 4.86743e-18)
(9.22508 0.427356 -1.10739e-17)
(8.30338 -0.94846 2.56709e-18)
(5.86674 -1.03947 1.43456e-18)
(3.95875 -0.700799 0)
(5.82784 -1.27797 5.57062e-18)
(7.44988 -1.26725 7.32764e-19)
(9.34488 -0.243741 0)
(8.44768 -0.20658 2.50054e-18)
(11.0676 -0.84488 4.47769e-18)
(10.9884 -0.976127 -8.69544e-18)
(7.74753 -1.2819 1.71755e-19)
(6.61652 -1.11069 -2.98532e-18)
(9.19519 -1.30316 -9.21822e-18)
(6.75585 4.09376 -1.03602e-17)
(4.24731 2.36013 3.39749e-17)
(9.37123 6.38382 -7.72593e-19)
(6.29855 -0.43913 8.57602e-18)
(6.10764 -0.51335 -4.08515e-18)
(7.55632 5.60926 1.80228e-18)
(5.50524 4.58611 -6.40671e-18)
(7.57558 -1.13758 -1.07056e-18)
(5.97896 1.58923 3.16912e-18)
(9.41128 -0.965178 3.7488e-18)
(8.62305 -0.0565087 0)
(9.11013 1.15401 6.46981e-18)
(9.11136 -0.902744 -2.19177e-17)
(5.92922 0.697127 -1.50287e-18)
(6.25224 0.679296 0)
(7.60441 -0.608193 6.3883e-18)
(7.60423 -0.525123 -1.09524e-17)
(10.5278 -1.29681 5.19258e-18)
(10.561 -1.31513 -2.70826e-18)
(7.70858 -0.832356 -3.45053e-18)
(7.71233 -0.768266 7.19593e-18)
(5.99974 -0.995996 6.14468e-19)
(10.6483 -1.26615 -3.48543e-18)
(6.64861 -1.18673 -4.31526e-19)
(9.15893 5.30637 -6.79208e-18)
(16.1821 3.46005 0)
(8.75267 4.85969 -4.43378e-19)
(7.53604 -0.462542 0)
(5.94523 2.41327 -6.85985e-18)
(9.03822 0.219497 0)
(9.01359 0.176923 0)
(4.47963 -0.898983 -9.548e-19)
(7.93647 -0.998943 0)
(8.65952 -1.36161 0)
(8.1019 -0.995832 1.11707e-18)
(9.16637 -1.43278 -2.5112e-18)
(8.04694 -0.994744 2.55577e-18)
(9.66426 -1.30043 0)
(4.46653 -0.920864 -3.0053e-18)
(4.56017 -0.783354 0)
(7.93908 -0.435195 1.11228e-17)
(4.99873 -3.08962 1.54672e-17)
(8.37092 -1.33209 -1.34637e-18)
(7.95311 -1.37215 0)
(5.15076 -0.945182 -1.75861e-18)
(6.72028 -1.18894 -1.62015e-18)
(7.96153 -1.33776 4.02835e-18)
(6.40979 -1.12415 2.50516e-18)
(8.92169 0.61215 0)
(7.67373 -1.30819 0)
(5.26942 -1.26261 0)
(5.95206 -1.13281 -1.72236e-18)
(10.6652 -1.20498 -7.5835e-19)
(10.6224 -1.14149 0)
(8.21528 3.90628 2.20342e-19)
(5.27219 -0.929599 5.18707e-18)
(7.89717 -0.00697192 -1.34133e-17)
(3.69427 -2.06321 -3.08782e-17)
(9.04403 0.638905 -3.19266e-18)
(9.76993 -0.71985 -3.67773e-18)
(8.02519 -1.03207 1.93541e-18)
(3.7649 -0.682262 -9.69641e-18)
(9.09947 0.778184 3.12256e-18)
(7.4346 -1.31659 5.64695e-18)
(7.97583 0.139563 -1.16075e-18)
(8.31434 -1.37062 -1.19242e-18)
(8.55552 -1.38629 -2.458e-18)
(8.09305 -0.565271 8.14092e-18)
(8.54615 0.503036 1.15177e-17)
(9.44485 0.00756995 0)
(5.49951 -0.944697 -9.90549e-18)
(5.39377 -0.829725 -7.94814e-18)
(9.6512 -0.804799 0)
(4.32226 -0.470488 8.56443e-18)
(8.5189 -1.37261 6.64876e-18)
(5.51955 -1.74363 -5.94011e-18)
(7.85506 -0.383197 4.48014e-19)
(7.90788 0.256307 2.11626e-17)
(12.1403 -1.26006 -1.07797e-18)
(11.9 -1.33359 0)
(7.84026 -0.279028 -5.64862e-18)
(7.45968 -1.08516 2.36401e-18)
(5.20826 -0.877913 -1.63999e-18)
(7.24763 -0.942788 -6.1951e-18)
(9.8536 -1.33857 1.10288e-17)
(9.5166 -0.815029 -4.43811e-18)
(8.83271 -0.132922 0)
(7.69503 -1.29503 0)
(8.85027 -0.139998 0)
(7.74103 -0.233565 0)
(7.789 -0.448797 9.3158e-18)
(7.52629 -0.132997 1.14646e-17)
(8.24009 -1.271 -2.14229e-18)
(7.48069 -0.514882 0)
(8.27593 -1.19836 -5.99355e-19)
(7.21399 -1.25274 8.46928e-19)
(7.92558 -0.912012 -3.03761e-18)
(12.3547 1.57476 0)
(7.87561 -1.24928 4.14728e-18)
(7.96659 -0.953826 0)
(12.6045 2.01371 2.9285e-17)
(9.12181 -1.41408 -1.50057e-18)
(3.79935 -0.645957 -8.83226e-19)
(7.62856 -1.3247 -2.70046e-18)
(8.26899 -0.509072 -4.65473e-18)
(11.036 -0.53362 -1.01505e-17)
(8.72249 -1.3627 -3.03675e-18)
(8.58887 -1.37191 -1.40645e-18)
(6.24981 -0.214423 -1.06129e-17)
(6.38602 -0.270798 1.04311e-17)
(8.56981 1.28137 -3.81758e-20)
(10.9773 -0.687359 1.03395e-17)
(8.14755 -1.40377 0)
(5.32029 -0.935027 2.99337e-18)
(7.21407 -1.2164 0)
(4.96871 -0.873946 0)
(9.30948 -1.46126 -2.1788e-18)
(8.08484 -0.742213 4.827e-18)
(10.0505 -1.49722 0)
(7.69123 -1.40917 0)
(8.03161 -1.24269 0)
(8.01127 -1.23967 -1.02858e-19)
(8.79567 -0.271041 0)
(9.05121 -0.246016 1.872e-17)
(8.67575 -0.16615 2.17551e-18)
(8.84301 -0.156733 0)
(7.42429 -0.488773 -9.24078e-19)
(9.0626 -1.33523 6.09265e-18)
(9.1882 -1.31947 0)
(8.58334 -0.362484 -3.36571e-18)
(9.62884 0.0195859 -5.76701e-17)
(8.31828 -0.402096 2.76441e-18)
(8.28544 -0.628201 6.15902e-18)
(8.41653 -0.772222 -2.82962e-18)
(6.58948 -0.584058 5.67586e-18)
(6.80368 -0.603661 1.24725e-18)
(10.9356 -0.48891 1.53559e-17)
(9.43786 0.0215746 5.60261e-17)
(8.2461 -1.18728 0)
(7.295 -0.983713 1.12956e-18)
(9.09 -1.35383 -5.20266e-18)
(10.2665 -0.0145784 0)
(8.83683 -1.36358 0)
(7.54105 -1.09639 4.48373e-18)
(7.50723 -1.1248 0)
(7.62591 -1.05031 0)
(7.66557 -1.02692 1.68036e-18)
(10.9037 -0.321151 2.50665e-18)
(3.45309 -0.612431 4.50078e-18)
(10.3947 -0.930179 0)
(6.65885 -0.633462 -5.29275e-18)
(6.72481 -0.0945549 7.52963e-18)
(7.78885 -0.967558 -2.28405e-18)
(8.89983 0.107714 0)
(8.85905 0.102309 1.88313e-17)
(7.74679 -0.986707 2.79333e-18)
(9.87998 -1.41699 3.4255e-18)
(8.16055 1.79262 3.51444e-18)
(9.17695 -1.34071 1.00934e-17)
(9.39315 -0.311864 0)
(8.52601 -0.681279 -1.22074e-18)
(8.27792 -1.66664 1.70876e-17)
(5.54356 -1.15191 -2.61302e-17)
(8.49253 -0.830824 5.75477e-18)
(9.08215 -1.34608 -5.12775e-18)
(5.04562 -1.12636 -2.95555e-18)
(10.027 -1.32559 -4.84981e-18)
(3.63813 -0.621199 2.10189e-18)
(8.67075 -1.41794 -7.54872e-18)
(8.17794 -1.28858 0)
(9.61279 -1.37719 0)
(7.49332 -0.606196 -2.95041e-18)
(9.32745 -0.382545 0)
(9.0328 0.0782743 -2.4657e-17)
(7.29025 -1.1383 0)
(8.30228 1.36618 -3.16091e-18)
(7.87369 -1.18875 0)
(7.8237 -1.19273 -4.07339e-19)
(7.91655 -1.15039 0)
(7.90534 -1.12486 0)
(7.24692 -1.21164 0)
(10.1923 -1.39342 -5.65896e-18)
(10.7309 -1.45543 8.20432e-18)
(9.20992 -0.156951 -3.69186e-18)
(9.11626 -1.33314 0)
(7.24999 0.901212 5.25281e-18)
(8.98426 -1.43678 4.74804e-21)
(13.3209 -1.07413 2.17927e-17)
(6.72494 -1.12168 1.61556e-17)
(4.57488 -0.764718 -1.44464e-17)
(11.1071 -1.19501 3.21223e-18)
(9.14178 -0.152359 3.07118e-18)
(11.0818 -1.07744 0)
(10.1733 -1.29978 1.06375e-18)
(8.57775 8.6568e-05 9.12552e-18)
(9.12489 -0.178154 -2.1033e-17)
(11.5793 -1.39351 0)
(12.9972 -1.16787 3.27052e-18)
(14.7948 -0.986127 -2.26958e-17)
(11.2053 2.28429 -2.26242e-18)
(8.5801 -0.44823 0)
(9.09996 -0.0518034 0)
(9.93537 -0.0118616 7.39624e-19)
(9.58278 -0.00609225 1.04464e-18)
(10.8971 -1.12349 6.91949e-18)
(8.88594 -0.0699921 0)
(10.106 -1.10941 7.28162e-18)
(10.1364 -1.04521 0)
(7.76242 -1.04762 0)
(7.80567 -1.02343 0)
(6.51269 1.50304 1.79498e-17)
(9.7631 -0.95517 2.48609e-18)
(10.1038 -1.35553 -1.43674e-18)
(11.0375 -1.2303 0)
(8.72541 -1.36501 -2.16046e-18)
(10.9616 -1.19573 -3.68226e-18)
(10.1655 -1.25639 1.87145e-18)
(15.0263 -0.046341 0)
(7.73482 -1.32583 -3.71405e-18)
(1.8214 0.227106 6.56208e-17)
(7.43151 -0.767743 1.74427e-18)
(7.46639 -0.721011 -6.91687e-18)
(7.37984 -0.773877 0)
(2.06756 0.944956 4.17162e-18)
(7.34119 -0.74311 0)
(8.34817 -0.791537 0)
(7.68033 -1.27446 1.57122e-18)
(7.24583 -1.2017 -1.70874e-18)
(6.89504 -1.19502 9.12821e-19)
(8.27052 1.95501 -2.70935e-18)
(10.1075 -1.27393 1.80668e-18)
(6.45891 0.0191323 6.14589e-18)
(8.20975 -0.445276 -2.0585e-17)
(7.63261 -0.972553 2.99718e-18)
(7.58956 -1.00518 0)
(9.14161 0.0348695 -2.23415e-17)
(7.71708 -0.921638 -5.16104e-18)
(7.75895 -0.900288 1.8528e-18)
(5.77308 -0.943911 0)
(6.8764 -0.303853 9.2557e-19)
(5.68894 -0.10096 2.54449e-17)
(8.34258 0.20041 0)
(10.2351 0.0577917 -1.47473e-17)
(2.85047 0.524565 -3.73218e-17)
(9.03369 0.0206651 1.85147e-17)
(9.05996 0.0304729 -4.16161e-17)
(8.83352 -0.0154474 -3.23386e-17)
(6.95309 -0.231428 -1.62885e-18)
(7.61416 -0.758767 0)
(8.81702 0.00816016 0)
(8.04768 -0.282746 3.2661e-18)
(8.12301 -0.462409 2.08553e-17)
(7.66589 -0.729374 7.19466e-18)
(8.50468 -0.0055565 0)
(8.99663 0.0493706 3.48854e-17)
(8.97341 0.0627167 3.51268e-17)
(8.96807 0.0380882 5.82345e-19)
(7.8479 -1.27853 -3.33997e-18)
(10.3466 -1.21736 -2.71747e-19)
(8.27803 -0.0271367 1.18361e-17)
(9.72839 0.0719902 -1.35543e-17)
(8.96811 0.00223153 0)
(7.84368 -1.40585 0)
(8.74873 0.571627 9.49486e-18)
(8.04417 -0.375063 0)
(7.87176 -0.932151 1.90194e-18)
(5.76973 -1.08167 0)
(4.6057 -0.715883 -6.76462e-19)
(8.26806 -0.755764 3.76024e-18)
(4.73825 -0.959897 -1.53064e-18)
(7.86179 -0.970039 -4.63799e-18)
(8.15011 0.829716 1.5769e-18)
(6.67747 1.27607 1.09748e-17)
(8.85389 -0.0432244 -1.55777e-17)
(6.24623 0.996066 0)
(8.22254 -1.30918 1.14107e-18)
(7.15706 -0.798934 -1.44513e-18)
(8.88551 0.015283 2.82744e-17)
(8.98645 0.0123337 0)
(9.3906 -0.0304648 5.74897e-17)
(5.91959 0.940203 -1.00913e-17)
(6.03682 -1.07579 -3.04696e-20)
(8.79083 0.0548144 3.16722e-18)
(7.83477 -0.901894 -3.87885e-18)
(7.33996 -0.82703 0)
(6.64501 -1.15221 0)
(8.88561 -0.0359018 7.50684e-19)
(8.80935 -0.0778171 -1.10479e-17)
(8.93434 0.0342631 -2.30939e-18)
(8.99841 -0.0485819 7.49061e-19)
(4.04586 -0.722563 -5.58945e-18)
(11.2344 -1.27518 4.47706e-19)
(8.88009 -0.0415831 -9.82302e-19)
(8.62433 -0.258779 0)
(8.66553 -0.158527 3.68847e-18)
(8.56981 -0.208356 0)
(8.64149 -0.331172 0)
(8.57713 -0.345378 0)
(4.996 -0.875634 5.42695e-19)
(6.18983 -1.09235 1.25369e-18)
(9.18171 -0.0688681 0)
(6.51116 0.0270915 5.49073e-17)
(9.69567 -0.293145 -2.92094e-17)
(8.88311 0.112156 -1.29815e-17)
(8.87328 -0.0458446 -1.73591e-17)
(6.42379 -1.14088 -9.69959e-19)
(8.58031 -1.04218 0)
(9.86039 -0.0263171 -5.40081e-17)
(5.24061 0.206448 -1.51605e-17)
(8.72596 -0.0915073 -8.48339e-18)
(8.67376 -0.0874597 9.56459e-18)
(8.86125 -0.064456 7.44054e-18)
(8.98114 -0.0356035 7.3396e-18)
(8.8784 -0.0507334 -1.53719e-17)
(8.85725 -0.0395955 3.20074e-17)
(9.33305 -1.42474 -3.44452e-18)
(9.06497 0.0285701 -1.99029e-17)
(7.61577 -1.15015 -4.07954e-18)
(8.86153 -0.0352837 -6.52018e-17)
(9.88372 -1.36095 1.28777e-18)
(10.1541 -0.84162 0)
(8.92774 0.126991 1.49345e-17)
(8.93029 0.131295 -3.1994e-18)
(9.00796 -1.37885 -2.81677e-20)
(10.178 -0.906912 0)
(11.8611 0.327833 0)
(10.1438 0.110733 -6.94085e-17)
(9.23126 0.0206911 -1.99874e-17)
(9.63412 0.0621698 0)
(8.3951 0.149165 1.23403e-17)
(8.4563 -0.384072 0)
(9.14304 0.0424505 4.07548e-17)
(9.05693 0.0839022 -6.81673e-17)
(9.19728 0.0785784 5.23417e-17)
(8.75192 -0.115407 5.5515e-19)
(8.81463 -0.0586323 -7.89184e-19)
(11.8091 0.0608341 -1.43047e-17)
(11.3392 -0.134777 -1.04496e-17)
(11.1926 -0.25235 1.02638e-17)
(11.1947 0.266235 -3.60311e-17)
(11.405 0.113522 9.95214e-18)
(9.08544 0.0782239 2.9274e-17)
(9.00221 0.0559391 -3.67151e-17)
(8.86507 0.270556 0)
(8.83299 -0.424136 2.60218e-17)
(8.90042 0.0575646 2.17181e-17)
(8.88017 -0.472046 4.1776e-18)
(9.0274 -0.0910908 -2.77818e-17)
(9.03579 -0.0736124 2.56382e-17)
(9.6841 0.0580956 -1.3698e-17)
(8.36458 0.0508887 0)
(3.51973 -0.768046 -1.09284e-18)
(8.34247 0.712672 -1.28549e-17)
(8.52806 0.814125 8.12959e-18)
(9.08398 -0.0567832 -2.39729e-17)
(9.02398 -0.0661703 0)
(8.99276 -0.114501 0)
(8.92403 -0.00760955 1.85483e-17)
(9.02008 -0.123551 3.63767e-19)
(11.963 -0.114728 -3.30366e-18)
(11.8283 -0.140022 9.17308e-18)
(10.5339 0.0188802 -6.99531e-18)
(10.6788 -0.858395 -5.05561e-18)
(10.3989 -0.0516208 2.80015e-17)
(8.31712 -1.16151 2.52434e-19)
(10.06 -0.311117 0)
(8.88606 0.0823951 1.47148e-19)
(9.68696 -0.0496098 2.2004e-17)
(9.36504 -0.0092076 -5.52623e-18)
(9.05636 -0.0243329 -1.76827e-17)
(8.92662 0.0615424 -2.09593e-17)
(10.0599 -0.077956 5.46906e-18)
(9.93603 -0.0638346 -7.71094e-18)
(9.52959 -0.0108785 0)
(9.6444 -0.0108148 5.48304e-18)
(9.42398 -0.0277837 -9.59715e-18)
(10.0134 0.11387 -6.87012e-18)
(9.93881 0.0551239 3.5433e-18)
(8.96256 0.0595244 5.45944e-17)
(7.74367 -0.0120701 0)
(7.70704 -1.30756 1.4673e-18)
(8.00461 -1.33249 0)
(8.00535 -1.26319 -9.84723e-19)
(7.79211 -1.31283 4.57909e-19)
(7.31851 -1.24615 -5.78932e-19)
(8.01131 -1.25847 1.09944e-19)
(9.9891 -0.124664 5.44147e-17)
(9.36548 -0.0803587 -5.33472e-17)
(10.1723 -0.0780378 -4.61346e-17)
(9.53269 -0.0579905 0)
(10.0652 -0.221454 4.60682e-17)
(8.72145 -0.369463 0)
(7.95417 -1.02443 0)
(8.85722 0.0453452 -1.68244e-17)
(7.08532 -1.25235 8.08916e-18)
(8.40093 0.325772 -4.64527e-18)
(10.059 -0.442657 0)
(7.37668 -0.407015 7.64975e-18)
(9.73362 0.0352325 3.33736e-18)
(6.62137 0.00517559 0)
(8.62609 0.593337 -1.36025e-17)
(9.56785 -0.0754576 7.11363e-17)
(7.98436 -1.03796 3.0933e-18)
(7.37467 -0.570116 6.88283e-18)
(9.01059 0.00647795 3.86779e-17)
(8.44048 -0.676544 -1.60757e-18)
(6.91682 -0.145236 0)
(9.67521 0.0484044 3.09521e-18)
(6.61718 -0.00970875 0)
(7.52463 -1.15181 1.71943e-18)
(10.0537 0.0569927 -6.27166e-17)
(6.92264 0.120852 0)
(7.5025 -1.17535 2.3314e-18)
(8.38125 -0.613087 0)
(10.0711 -0.100745 -8.19258e-18)
(8.83104 0.634048 -7.61801e-19)
(8.79534 -0.0178108 2.4584e-17)
(6.71622 0.17914 -3.28418e-17)
(9.18533 -0.0917143 0)
(6.43899 0.0134931 1.20333e-16)
(8.56108 -0.153108 -9.57448e-18)
(8.59195 -0.156425 0)
(7.14475 -0.709187 0)
(10.3013 -0.0721741 2.57109e-16)
(10.0616 -0.181151 -4.65774e-17)
(3.71607 -0.127185 -4.37137e-18)
(9.99891 0.141828 9.11544e-17)
(10.1739 0.314497 2.63834e-17)
(8.63041 -0.191908 0)
(6.17289 -1.0504 0)
(7.07205 -0.76265 0)
(5.25131 -0.902812 0)
(2.55995 -0.1511 0)
(8.15302 -1.33267 0)
(8.80978 3.3551e-05 6.90762e-19)
(8.94242 0.0434829 0)
(8.98395 0.0284065 -1.96133e-17)
(8.9308 -0.023649 -1.33515e-18)
(8.90931 -0.113865 0)
(8.50915 0.33076 0)
(9.18999 0.00297298 2.04444e-17)
(8.90718 -0.023805 2.29103e-17)
(9.92203 0.000604528 0)
(8.71943 -0.118934 6.85737e-18)
(8.97603 -0.0568019 1.98116e-18)
(10.521 -1.00277 -1.72152e-18)
(10.1013 0.0331267 -5.63789e-18)
(9.42991 -0.0278 6.44573e-18)
(8.88706 0.0143968 3.08654e-17)
(10.1768 -0.601337 -7.77244e-18)
(10.6059 -0.976241 -5.45072e-18)
(10.0933 0.461371 -1.16105e-17)
(9.79514 -0.0613811 0)
(9.56421 -0.309251 -1.20095e-17)
(6.78698 -0.950726 2.61094e-18)
(8.97087 0.002003 8.00913e-17)
(9.00842 0.0205921 -8.20401e-17)
(10.1467 -0.683886 -4.25953e-18)
(8.36585 -1.18206 -2.30444e-18)
(8.13006 -1.33829 1.09995e-20)
(10.1402 0.0411929 9.5108e-17)
(10.4385 -1.07804 2.9222e-18)
(6.40438 2.69968 2.71507e-18)
(6.81163 -0.837458 0)
(9.48174 -0.349204 -5.0273e-19)
(8.59444 -0.119758 0)
(8.62832 -0.119568 0)
(9.94926 0.581294 -1.70774e-17)
(8.27701 -1.24544 4.44431e-18)
(9.53198 -0.165 -2.75657e-17)
(9.02674 0.175757 1.44474e-17)
(8.51858 -1.07896 -4.54034e-18)
(8.86802 -0.0092088 0)
(8.99391 0.000467585 -1.4706e-17)
(8.08367 -1.34417 -1.35447e-18)
(9.02195 0.195982 9.26537e-19)
(8.90416 0.0191498 0)
(9.22766 -1.23598 -6.45334e-18)
(7.27849 -0.664366 6.9619e-18)
(8.99965 0.135912 3.35565e-17)
(8.90083 0.0164021 -2.2615e-17)
(9.73369 -1.26451 1.83564e-18)
(10.614 -1.01765 3.62371e-18)
(8.91463 0.113169 0)
(8.65691 -1.38524 1.60895e-18)
(7.22953 0.199288 0)
(8.97644 0.130085 0)
(8.6805 -0.0239287 6.34319e-18)
(6.68306 0.212131 0)
(8.69838 0.0640122 -5.63559e-18)
(10.5568 1.46491 8.19758e-18)
(8.61356 -0.313134 3.42114e-18)
(8.11281 -1.34169 0)
(8.55222 -0.280441 8.16315e-18)
(8.68232 -0.210515 -1.20288e-17)
(8.50529 -1.38098 4.79629e-19)
(8.87877 -0.231651 -1.22843e-18)
(9.77097 -1.31928 0)
(5.0936 -0.927405 -2.12664e-18)
(8.99673 -1.41022 -9.57644e-19)
(10.4651 -0.410765 0)
(4.65908 -0.879318 -1.10726e-17)
(6.11669 -0.990963 6.83597e-18)
(6.414 -1.19869 -1.0566e-17)
(4.92757 -0.916514 0)
(11.2571 7.33805 1.35448e-17)
(9.46574 0.089384 0)
(10.2207 -0.296345 0)
(9.26606 0.040695 7.06278e-18)
(6.15656 -0.0201004 0)
(9.79864 -0.458288 6.03167e-17)
(4.39434 -0.688731 1.86102e-17)
(9.53577 -1.38222 -3.52439e-18)
(9.65302 -1.355 0)
(8.86463 -0.0766888 -2.66216e-17)
(9.2793 0.0531617 -4.75546e-17)
(9.54261 -1.37658 1.12333e-18)
(6.72828 -0.93839 5.44143e-18)
(10.2777 -0.245576 1.34742e-17)
(10.1478 -0.18215 -1.93655e-17)
(9.14099 -1.35103 2.69167e-18)
(7.9914 -1.27171 1.80807e-18)
(9.92257 -1.10946 0)
(7.11795 -0.956271 2.34261e-18)
(7.03162 -0.978878 7.63472e-19)
(7.22096 0.00676822 1.32695e-17)
(5.64794 -0.369093 4.52455e-18)
(8.63275 -0.0264044 -6.63365e-18)
(6.94338 -1.00599 6.48466e-18)
(9.87483 0.161403 -1.09039e-16)
(9.11859 0.0699464 4.4178e-17)
(7.10416 -1.22167 8.34675e-18)
(7.93916 -1.29906 0)
(7.1258 -0.987478 0)
(6.93083 -1.19271 7.85073e-19)
(9.26108 -1.34151 -3.49239e-18)
(9.06955 0.0460265 2.32424e-17)
(7.98787 -1.29198 -1.5985e-18)
(9.06556 0.0423412 -5.20918e-17)
(8.90129 -0.0802586 2.08068e-17)
(9.86866 -1.06608 -1.5499e-17)
(8.53231 -1.37208 -1.58295e-18)
(8.20783 -1.35823 0)
(9.99113 -1.28653 0)
(10.0491 -1.24501 1.94178e-18)
(9.02314 -0.0543332 -3.59052e-17)
(9.97241 -1.32724 0)
(8.55219 -1.08165 2.10941e-18)
(8.89418 -0.0417897 -1.20499e-17)
(8.86633 -0.0329743 1.30295e-17)
(7.57398 5.99292 4.59921e-18)
(10.0026 -0.895424 0)
(9.94428 -1.05318 0)
(9.81306 -1.20033 0)
(10.0663 -0.828297 0)
(9.28904 -1.33694 0)
(8.81705 0.0761237 1.9477e-18)
(10.0565 -0.757715 0)
(8.92151 0.101489 -5.31441e-18)
(8.89366 -1.19806 -2.33746e-18)
(3.28029 -0.376871 0)
(4.47255 -0.431799 -1.37982e-17)
(7.25309 -1.26128 0)
(8.98622 0.0303244 0)
(9.34169 0.025413 0)
(3.51268 -0.612916 5.66586e-18)
(9.44998 0.0295469 -2.70413e-17)
(8.95526 -0.97256 -3.62425e-18)
(8.7205 -0.815307 1.23438e-18)
(11.9797 -0.413213 2.32366e-18)
(11.7829 -0.503589 6.36011e-18)
(7.25221 -1.23317 0)
(9.8394 -1.156 0)
(9.37525 -0.930932 5.54022e-18)
(8.85525 0.0279176 0)
(8.95686 0.0271369 1.00263e-16)
(8.37007 -1.23832 0)
(7.04657 -0.971651 0)
(9.39148 -1.06182 0)
(6.09373 -1.02696 1.04164e-18)
(9.05655 -0.00395837 3.28899e-17)
(9.01706 -0.0211414 0)
(8.58957 -1.10064 -7.15432e-19)
(9.74373 -1.23231 4.74219e-18)
(9.00589 0.00354591 0)
(7.78202 -1.31709 1.88281e-18)
(12.0543 -0.823646 -5.11981e-18)
(8.4408 -1.27829 1.24569e-18)
(9.36488 -1.36757 1.76063e-18)
(8.70612 -1.11 0)
(10.6011 -1.48811 0)
(5.47525 -0.966312 -3.32439e-18)
(9.02127 0.00568716 2.35521e-17)
(6.46385 0.833059 -5.78044e-19)
(6.93839 -0.955698 6.31036e-18)
(7.73457 -0.638281 7.59021e-18)
(7.73551 -0.577998 2.56563e-18)
(7.67353 -0.515749 5.75253e-18)
(11.7688 -0.704316 4.22564e-19)
(8.68009 0.366688 0)
(4.92427 -0.891659 0)
(9.22641 0.007405 2.05899e-17)
(9.06857 0.022463 -1.93586e-17)
(9.05853 0.0152205 0)
(9.27518 -0.0439166 2.83446e-17)
(9.31217 -0.0512671 2.53108e-17)
(10.6461 -0.212066 0)
(3.52476 -0.624325 0)
(8.86897 -0.0392434 -1.87599e-18)
(8.58143 0.397202 0)
(8.89743 -0.0513694 1.44582e-17)
(10.9661 -1.41983 0)
(8.39799 -1.33011 -9.94781e-19)
(9.88478 -0.0342008 5.70529e-17)
(5.46487 -1.09323 -6.21704e-18)
(8.29361 -1.27099 -1.10488e-18)
(5.07587 -0.846317 1.77204e-18)
(9.41892 0.0529233 0)
(6.57651 4.74444 1.78089e-18)
(9.09539 -0.0264906 5.55209e-19)
(11.188 0.882976 3.3096e-17)
(11.6281 0.750395 0)
(11.1985 -1.37724 2.37742e-18)
(11.6825 0.452318 0)
(8.51013 -1.16266 3.73748e-18)
(7.82511 -1.13459 0)
(8.09 -0.525374 1.30059e-19)
(10.5556 -1.15832 0)
(9.24145 -0.346252 0)
(8.50012 -1.18871 -2.82071e-18)
(8.17045 -1.26835 5.58406e-18)
(5.35646 -0.810109 -2.86861e-18)
(10.0655 -1.38139 0)
(9.11992 -0.0515068 2.19802e-17)
(9.21655 -0.26657 2.65348e-17)
(4.77821 -0.863102 -7.57217e-18)
(8.17226 -0.47963 -5.04009e-18)
(7.47923 -1.24608 4.39197e-18)
(5.9941 -0.836968 1.05422e-17)
(7.53747 -1.20349 -4.60133e-18)
(7.0929 -0.390917 6.86107e-18)
(11.6926 -1.38165 -1.1117e-17)
(7.10569 -0.206335 -2.20838e-18)
(7.46084 -1.02726 -2.33187e-18)
(7.50585 -1.02455 1.94937e-18)
(7.4441 -0.990135 0)
(7.42748 -1.01194 3.386e-20)
(11.2596 7.32734 0)
(10.2247 4.24701 1.27233e-17)
(8.715 -1.33259 0)
(6.66915 0.034312 -5.79154e-17)
(8.68819 -1.35499 -7.03374e-18)
(8.65792 -0.253458 0)
(8.32501 -1.32261 4.14901e-20)
(8.7193 -0.270895 8.22324e-19)
(7.07494 0.0063791 -9.53523e-17)
(8.86552 -0.132666 -4.17365e-20)
(8.6015 0.0401095 1.46519e-17)
(8.64714 0.029188 -2.16932e-17)
(8.81496 -0.168301 -9.47983e-18)
(8.81829 0.405843 -2.48285e-18)
(6.54854 -0.874268 -7.84531e-19)
(8.87038 -0.63859 6.59608e-19)
(9.58427 0.020743 0)
(8.33433 -1.27078 0)
(7.68239 -0.126931 -1.45862e-18)
(8.90352 0.433956 -8.45236e-19)
(6.40658 0.0173835 0)
(4.12494 -0.553446 -4.03984e-18)
(11.3534 6.21045 -2.1075e-17)
(8.94214 0.487109 1.8801e-18)
(7.78823 -0.708881 6.78769e-18)
(8.27504 -0.485391 2.03444e-18)
(11.4009 -0.95796 0)
(7.3333 -0.163964 0)
(9.12297 -0.479458 -1.64273e-17)
(11.8631 -1.06503 0)
(6.02923 -0.538232 -3.76452e-18)
(10.5201 -0.916819 0)
(9.92541 -0.920361 0)
(9.17823 -0.376992 -2.88329e-18)
(10.022 -0.985751 0)
(9.98219 -1.10549 -3.84895e-18)
(6.40934 -0.474875 1.37711e-18)
(6.61449 -0.397372 3.90266e-18)
(10.5099 -0.73582 0)
(10.6218 -0.841877 5.50938e-18)
(9.09904 0.548567 -1.87357e-17)
(10.6243 -0.756193 0)
(9.19516 0.531582 3.86366e-17)
(9.58631 0.184599 1.03535e-17)
(8.88619 0.0917312 -1.6382e-17)
(9.17268 -0.0112137 -4.9962e-19)
(9.14163 0.287034 -4.98878e-17)
(7.01557 0.0150388 -9.64519e-17)
(8.8202 -1.44561 0)
(6.4933 0.00613784 -8.0858e-17)
(9.03996 0.46696 4.22964e-18)
(10.104 0.109482 1.60246e-17)
(9.77892 0.140776 3.03587e-17)
(9.5126 0.023424 -2.69759e-17)
(10.0681 -0.0355513 -5.72161e-17)
(9.81314 0.20122 0)
(7.08351 -0.0958802 -2.59239e-16)
(9.78323 -0.191406 5.10174e-17)
(12.3253 0.135352 7.40902e-18)
(6.58902 0.0137055 0)
(8.89374 0.113702 -4.32682e-17)
(12.4738 -0.294489 1.18538e-17)
(10.2888 -0.558247 -1.63022e-17)
(7.35726 -1.21143 -4.58303e-18)
(9.31409 0.395564 2.1596e-17)
(10.1692 6.55054 -2.84263e-18)
(9.30413 0.307108 -9.59228e-17)
(8.77902 -0.628867 -2.51059e-18)
(8.62932 -0.529416 1.18507e-17)
(7.42681 0.640806 -1.52588e-17)
(10.9214 6.69364 -8.76097e-18)
(8.58573 -0.725169 -3.65392e-18)
(6.58902 -0.224387 0)
(9.54535 0.116575 0)
(9.62384 -0.131749 -5.73738e-17)
(6.8162 0.248841 0)
(6.35122 -0.132835 1.43291e-16)
(8.89727 0.216072 -8.59365e-17)
(6.3639 0.0974346 0)
(8.92554 -0.210023 0)
(6.40047 -0.0150107 0)
(7.23312 -1.0704 1.32072e-18)
(8.92172 -1.37302 -3.65849e-18)
(9.07634 -0.0992007 -2.00881e-18)
(8.71338 -1.37001 0)
(10.2468 -1.06287 1.08491e-17)
(10.8624 -0.7171 -3.15662e-18)
(9.09401 -0.0597983 0)
(12.0249 -1.37514 4.50237e-18)
(7.28412 -1.14447 1.36529e-18)
(12.2648 -1.23979 1.1195e-18)
(4.00058 -0.592347 1.32089e-17)
(5.47646 -0.849218 8.87825e-18)
(7.35791 -1.04466 0)
(7.31313 -1.04275 -1.22108e-18)
(11.9196 -1.38015 -7.16895e-18)
(8.0614 -0.933954 0)
(8.86211 -0.0356129 3.82581e-17)
(8.89808 -0.0248112 -1.82654e-17)
(7.93649 -0.690469 7.86745e-18)
(8.86882 -0.0250975 0)
(10.3217 -1.50216 -3.5118e-18)
(9.07715 -1.45247 0)
(6.98234 -1.27394 2.06532e-19)
(7.87482 -0.647998 5.38974e-19)
(9.34187 -1.44158 1.0647e-18)
(6.09431 0.357522 -5.33508e-18)
(6.77377 -1.27538 -2.51992e-18)
(6.59109 -0.0670193 9.35478e-17)
(6.54221 4.20337 -1.34146e-18)
(6.15929 0.195523 -5.01543e-18)
(9.47454 -0.713351 1.16298e-17)
(6.43967 0.17089 5.04249e-18)
(6.72629 0.309238 0)
(9.0743 0.180955 3.28035e-17)
(12.4356 -1.09772 1.89617e-18)
(8.20154 -1.13924 0)
(4.48742 -0.697941 0)
(8.75795 0.0421004 8.0539e-18)
(8.67667 0.0489505 -6.14625e-18)
(6.50151 -0.972478 -3.4187e-18)
(6.22335 -1.03282 -7.36255e-19)
(6.76094 1.2031 3.69468e-17)
(8.41061 0.850012 -1.87801e-17)
(8.21357 -1.16939 -1.33023e-18)
(7.47552 0.480172 1.47824e-17)
(7.29161 1.9999 -3.55457e-18)
(5.20202 -0.949831 0)
(6.86232 -0.989128 -7.68971e-18)
(5.182 -0.961567 1.49998e-18)
(7.67151 2.42384 5.51032e-17)
(6.10298 -0.992381 -3.04346e-17)
(8.16203 -1.21331 1.52184e-18)
(7.55704 1.62059 2.00818e-17)
(4.25813 -0.680596 8.8991e-19)
(7.47663 0.130187 -2.60096e-17)
(9.06843 0.294325 0)
(8.57852 -1.01747 1.91126e-18)
(7.64954 0.13775 0)
(9.15344 0.257689 2.41389e-17)
(8.09879 -1.2618 -1.7102e-19)
(8.10485 -1.30047 1.44896e-18)
(7.59001 -0.679447 4.8699e-18)
(8.84147 -0.183677 2.38219e-18)
(8.12913 -1.27279 1.71813e-19)
(12.1652 -0.961845 6.12596e-18)
(9.01082 0.172271 2.55727e-17)
(9.76958 -1.03903 -2.28317e-18)
(7.93249 5.84286 0)
(5.84644 4.09798 1.69108e-18)
(8.03883 -1.30018 -1.66499e-18)
(10.7609 -1.04989 -2.63446e-18)
(7.86348 -0.580001 0)
(12.5805 -1.07245 8.29136e-20)
(10.6731 -1.0615 0)
(10.3013 -0.728877 0)
(9.67794 -1.31996 1.12091e-20)
(9.62281 -1.34703 -3.35617e-18)
(7.78436 -0.827754 -5.07172e-18)
(12.7107 -0.893561 0)
(6.35476 -1.09777 -2.54808e-18)
(7.94078 -0.524517 0)
(12.8397 -1.20305 -5.00597e-18)
(9.5841 -0.110863 -1.439e-17)
(10.2812 -1.08389 -5.71524e-18)
(12.9554 -0.863636 3.33024e-18)
(9.57123 0.638494 2.25699e-17)
(7.2355 -1.29303 5.13351e-19)
(6.82189 -1.15947 0)
(6.7839 -1.15921 -2.74943e-18)
(8.3395 -1.38731 3.98133e-18)
(8.59111 -0.787837 0)
(10.007 -0.023714 7.48809e-18)
(8.12442 -1.20051 -1.59929e-18)
(9.42196 0.47341 -1.52015e-17)
(9.42791 0.564816 -2.21132e-17)