/*--------------------------------*- C++ -*----------------------------------*\
| =========                 |                                                 |
| \\      /  F ield         | OpenFOAM: The Open Source CFD Toolbox           |
|  \\    /   O peration     | Version:  2206                                  |
|   \\  /    A nd           | Website:  www.openfoam.com                      |
|    \\/     M anipulation  |                                                 |
\*---------------------------------------------------------------------------*/
FoamFile
{
    version     2.0;
    format      ascii;
    arch        "LSB;label=32;scalar=64";
    class       volScalarField;
    location    "200";
    object      nuTilda;
}
// * * * * * * * * * * * * * * * * * * * * * * * * * * * * * * * * * * * * * //

dimensions      [0 2 -1 0 0 0 0];

internalField   nonuniform List<scalar> 
2283
(
0.174344
0.230524
0.00357296
0.00437753
0.00723317
0.00818213
0.129685
0.13226
0.00147798
0.00479622
0.00356643
0.0972362
0.00303202
0.0601539
0.0887773
0.121239
0.120349
0.0443986
0.182685
0.00513574
0.0130134
0.0115978
0.140029
0.139913
0.1618
0.211272
0.135227
0.0295301
0.135206
0.00215145
0.00128959
0.130957
0.126542
0.140708
0.140203
0.126867
0.120876
0.140799
0.140622
0.296512
0.225618
0.0514792
0.00793599
0.00894189
0.0326043
0.0262978
0.0100542
0.0238058
0.0192172
0.137921
0.0128507
0.133016
0.00486982
0.0238516
0.100596
0.0131671
0.0393854
0.0583198
0.00235707
0.102957
0.0512527
0.0742352
0.0133127
0.0462881
0.00106214
0.161977
0.217776
0.0534897
0.00617204
0.00993429
0.0508936
0.00470277
0.0961064
0.192041
0.0730858
0.00641874
0.141522
0.139587
0.140536
0.141052
0.0775253
0.101625
0.0234929
0.00408164
0.00136547
0.00392663
0.00986448
0.0312957
0.011193
0.0127605
0.0425268
0.00526817
0.0268309
0.0803604
0.0608833
0.141679
0.105387
0.00703586
0.145085
0.005028
0.0960857
0.105986
0.292042
0.0116684
0.00231539
0.00302571
0.353834
0.15372
0.00359775
0.00247581
0.144261
0.132942
0.132792
0.0668128
0.0536149
0.00312084
0.00626262
0.155314
0.00801308
0.0386903
0.0787533
0.0123437
0.1369
0.136548
0.00118271
0.00922862
0.0421139
0.0118722
0.0107676
0.0138648
0.0308177
0.00364968
0.00251682
0.0971467
0.0367314
0.0224017
0.113597
0.112992
0.00817581
0.00706941
0.0472935
0.00972248
0.014465
0.0420912
0.0598142
0.00200498
0.0505258
0.14043
0.140063
0.0467354
0.149989
0.0675463
0.105443
0.0968433
0.0100136
0.00947638
0.00505946
0.0043699
0.0358072
0.00775083
0.0519581
0.193879
0.0479897
0.0156273
0.123286
0.0236472
0.128155
0.00925823
0.132749
0.0455728
0.00245591
0.00143225
0.00278027
0.00718313
0.120766
0.00552443
0.0344828
0.0294849
0.00606654
0.00562669
0.0241049
0.0138914
0.00511907
0.00274959
0.0220574
0.0176463
0.00186222
0.00771031
0.0156711
0.003576
0.00367169
0.138591
0.11349
0.0543619
0.0281492
0.0341679
0.0554233
0.061165
0.0192074
0.0180442
0.0433996
0.0479553
0.00352511
0.0200129
0.0021385
0.0151846
0.0101225
0.0196653
0.0612791
0.0210575
0.139453
0.140378
0.0019124
0.0352014
0.0142014
0.0393193
0.00670269
0.0381061
0.0236384
0.00159425
0.00203245
0.0831748
0.0024023
0.0127929
0.00668904
0.00189502
0.005838
0.00918647
0.00469897
0.128875
0.0081202
0.00253645
0.00336312
0.0231854
0.027049
0.037889
0.00219952
0.0981496
0.00208397
0.128178
0.0789567
0.0332551
0.00146809
0.12447
0.00949009
0.103669
0.010468
0.011209
0.0798185
0.124573
0.166762
0.00239498
0.00212698
0.0718558
0.00135685
0.0160736
0.00202878
0.0820084
0.100488
0.0128714
0.0115977
0.0867791
0.0169208
0.00209192
0.0023044
0.020428
0.0697118
0.0716433
0.00845149
0.0769642
0.0826299
0.0751364
0.0744255
0.0126283
0.0545777
0.0190344
0.0067001
0.0431696
0.0409079
0.0110633
0.0401156
0.0310138
0.013496
0.00146752
0.0104962
0.0900581
0.0541932
0.0131295
0.0124163
0.0252118
0.0265634
0.105624
0.0491353
0.00643752
0.00209755
0.00354658
0.00250049
0.00873291
0.011776
0.00998662
0.00575149
0.0122139
0.0120668
0.0687676
0.0950309
0.0511357
0.0743622
0.0525938
0.0222544
0.0215301
0.0364704
0.160365
0.0259608
0.0794572
0.0621193
0.0235587
0.026808
0.0599511
0.151975
0.0195572
0.0191801
0.017684
0.193506
0.0155911
0.0175664
0.0149672
0.0229391
0.0257228
0.0667218
0.00121011
0.0503388
0.0230372
0.0370892
0.0340742
0.142204
0.140523
0.0310297
0.0144063
0.0772335
0.0198025
0.114403
0.0700029
0.00344422
0.00166666
0.0538056
0.0190232
0.00182632
0.020734
0.0010398
0.00909787
0.00984769
0.00658325
0.0498764
0.106154
0.140585
0.00770675
0.0947979
0.0164459
0.0153353
0.0202451
0.0225125
0.00662789
0.0068554
0.00783427
0.128291
0.0208113
0.0493122
0.00989826
0.00696448
0.00476006
0.00330167
0.0200504
0.129935
0.0242436
0.0217359
0.137744
0.126622
0.0072186
0.00720599
0.00822293
0.00611269
0.0988531
0.143607
0.178043
0.159599
0.0256798
0.109111
0.0401182
0.0457839
0.0264199
0.0296481
0.0256467
0.0595251
0.0184624
0.0190751
0.0166228
0.0210425
0.0251624
0.0122695
0.00430106
0.00274847
0.0363198
0.0408597
0.0337414
0.00356576
0.034092
0.0608124
0.00964462
0.00801597
0.00647082
0.00401207
0.0243832
0.033143
0.0942519
0.0290122
0.0254542
0.144197
0.0355746
0.0389365
0.00311045
0.0372986
0.0178542
0.1213
0.209304
0.00616888
0.139963
0.140296
0.0910018
0.0417576
0.0448164
0.112345
0.0972404
0.0889883
0.0492141
0.132779
0.140467
0.140626
0.140496
0.00950921
0.0254472
0.117491
0.140722
0.139342
0.00671349
0.127673
0.0915944
0.0400386
0.00304576
0.00149438
0.0646655
0.0014936
0.035909
0.10433
0.0354914
0.0823839
0.0345356
0.00781115
0.0258602
0.118426
0.133775
0.160972
0.0274661
0.0029585
0.142084
0.0415409
0.029627
0.00454295
0.117189
0.130372
0.144534
0.135824
0.00176159
0.0170452
0.121869
0.119931
0.130423
0.125046
0.111975
0.109477
0.00258747
0.00353985
0.214139
0.193327
0.243426
0.141352
0.13716
0.00412179
0.0210661
0.268372
0.0137794
0.139743
0.138044
0.14593
0.149594
0.12172
0.111133
0.0131035
0.139872
0.015662
0.107404
0.018501
0.0637396
0.140766
0.140788
0.0146713
0.0582024
0.0495106
0.232542
0.150318
0.183614
0.124562
0.0352128
0.145591
0.144566
0.146649
0.132936
0.145973
0.046616
0.0575789
0.0595093
0.0709209
0.0620719
0.140512
0.140796
0.136758
0.0588988
0.126869
0.062088
0.135272
0.139484
0.152461
0.123077
0.00126052
0.113796
0.117777
0.143263
0.139776
0.132863
0.146263
0.131455
0.035733
0.0400645
0.0900653
0.046398
0.093694
0.0224461
0.0978838
0.141381
0.163239
0.155317
0.148522
0.141457
0.227752
0.195647
0.155954
0.164452
0.154641
0.250185
0.217806
0.141927
0.0900206
0.00933877
0.0104378
0.00769237
0.00943006
0.00765351
0.0090152
0.305003
0.164813
0.237385
0.176159
0.192262
0.102468
0.0325289
0.141312
0.00440111
0.123018
0.147997
0.0545654
0.323292
0.248429
0.124481
0.152842
0.0318677
0.0464561
0.310492
0.0728221
0.282084
0.409669
0.313162
0.0137886
0.157982
0.131159
0.0110623
0.0808816
0.178951
0.126547
0.263722
0.256458
0.424549
0.329583
0.129449
0.130541
0.0300312
0.157716
0.223178
0.00506453
0.322063
0.317894
0.127311
0.00345466
0.0257852
0.00200798
0.00272558
0.00529955
0.139354
0.140926
0.140008
0.129825
0.127929
0.127188
0.147928
0.112767
0.155065
0.134637
0.148609
0.0408817
0.25708
0.3712
0.140779
0.0795317
0.0408505
0.109915
0.376664
0.112791
0.0117202
0.139849
0.139993
0.0748435
0.0203585
0.00390895
0.203417
0.0358365
0.0348836
0.0169539
0.110308
0.133511
0.134037
0.113991
0.0145932
0.144104
0.139801
0.0277898
0.140116
0.141468
0.0128636
0.139945
0.141113
0.0321615
0.0364116
0.140549
0.140566
0.0272199
0.0363744
0.143018
0.0110181
0.0630653
0.140458
0.294745
0.267605
0.140149
0.0858108
0.0480337
0.00958821
0.0423999
0.0547668
0.0109385
0.0759721
0.022369
0.00187234
0.0122475
0.0794109
0.00353882
0.00549366
0.00540901
0.00294366
0.00405345
0.169989
0.293807
0.312195
0.244052
0.145182
0.00330433
0.0161064
0.0193374
0.094786
0.443802
0.0165153
0.0122291
0.0925881
0.09952
0.0179642
0.00821267
0.0430562
0.0153605
0.0128047
0.0593338
0.0133411
0.139932
0.0095378
0.227481
0.296991
0.00763237
0.00910266
0.0143698
0.00696159
0.0185254
0.140478
0.00988731
0.140369
0.139491
0.0482855
0.0115927
0.0104172
0.0242759
0.0274345
0.141085
0.0208215
0.0284789
0.108446
0.0861721
0.00180075
0.061409
0.0488107
0.034057
0.0661693
0.0196179
0.141054
0.072574
0.141059
0.0271949
0.00346329
0.00533252
0.0056729
0.145115
0.150862
0.00108193
0.153177
0.0249022
0.0387044
0.0299009
0.0305252
0.00557361
0.0386019
0.0567358
0.140537
0.140236
0.015431
0.0108601
0.0479737
0.00395629
0.139782
0.139731
0.0158965
0.0301361
0.139906
0.006928
0.0212375
0.0109818
0.0175088
0.0107572
0.0107676
0.00222313
0.143262
0.0384941
0.0086859
0.0593919
0.0647826
0.065777
0.0261036
0.1309
0.00243278
0.144929
0.141824
0.1433
0.15159
0.155577
0.0799131
0.00113547
0.137069
0.127657
0.137839
0.0127836
0.0080687
0.186256
0.00250399
0.01233
0.0020265
0.161233
0.00180621
0.146612
0.0715476
0.060325
0.0140127
0.0578687
0.020157
0.00397659
0.0215013
0.0273265
0.108145
0.0174187
0.00413693
0.00252696
0.0162788
0.143595
0.117395
0.00281858
0.020194
0.00735289
0.0117938
0.0102244
0.0421146
0.0119708
0.0474702
0.019963
0.021489
0.0227279
0.020407
0.0031462
0.0393198
0.00749412
0.166295
0.0155868
0.121596
0.0128824
0.116211
0.15941
0.0922776
0.138667
0.139973
0.0753002
0.132987
0.0118913
0.00633828
0.143904
0.0123417
0.0835461
0.13302
0.287111
0.0013955
0.0168662
0.131604
0.0564237
0.0266832
0.0236412
0.188009
0.0796717
0.0179124
0.0138562
0.0463237
0.0607239
0.0962325
0.0541212
0.0423592
0.0231551
0.028508
0.061445
0.0500978
0.130299
0.0564993
0.130149
0.146883
0.133282
0.144681
0.137185
0.143861
0.00857784
0.306884
0.132352
0.180093
0.148524
0.403095
0.270594
0.229406
0.126774
0.217071
0.0317456
0.334241
0.140514
0.0254199
0.0782261
0.00664503
0.132059
0.00714479
0.133288
0.0496402
0.0435531
0.0699671
0.00798522
0.0412056
0.112246
0.143075
0.143655
0.111919
0.347798
0.413559
0.338792
0.399157
0.00577351
0.0137539
0.0155827
0.133703
0.0143902
0.0418539
0.0510044
0.135774
0.0104216
0.0113025
0.0123643
0.00398883
0.00642934
0.0172475
0.0168152
0.00977094
0.0229394
0.0810259
0.0947442
0.0640213
0.0813472
0.00926979
0.00736284
0.00697656
0.065091
0.0116839
0.0298761
0.00598041
0.293089
0.00305162
0.0300383
0.0800399
0.0344692
0.0401127
0.139049
0.014213
0.0242557
0.00394753
0.142149
0.140814
0.00553493
0.00417437
0.0306115
0.0116928
0.0209164
0.0767888
0.0438362
0.0021458
0.00835204
0.00215161
0.0061121
0.00592115
0.0170116
0.0636883
0.00161518
0.0774718
0.137099
0.0359175
0.0872699
0.137413
0.0118774
0.00876679
0.0195636
0.116644
0.0113639
0.0178122
0.140066
0.052285
0.00750152
0.00271997
0.00694073
0.0299641
0.0703962
0.0136952
0.0310484
0.067306
0.0223075
0.0194308
0.0179008
0.0159433
0.00443636
0.0770708
0.0107203
0.162721
0.0388008
0.0142465
0.121961
0.00255309
0.00522915
0.00525553
0.00791568
0.0487943
0.185013
0.0174878
0.128495
0.125975
0.0911903
0.0249666
0.015838
0.140981
0.00963257
0.0104757
0.141084
0.00237627
0.136451
0.137997
0.00953333
0.138659
0.0308661
0.13793
0.117529
0.122054
0.141371
0.142022
0.00499841
0.135579
0.24345
0.323326
0.129314
0.258773
0.115226
0.121235
0.0114091
0.0118637
0.00596522
0.00566222
0.0108489
0.103771
0.0944097
0.00914612
0.0331274
0.0859319
0.00484052
0.0146071
0.0296263
0.0969954
0.104539
0.0225774
0.154619
0.0261431
0.0324236
0.00884161
0.00642653
0.00664008
0.100073
0.0319323
0.043016
0.00911069
0.0102599
0.00686373
0.170759
0.00306479
0.0930808
0.0950464
0.03195
0.0507426
0.0775673
0.0869162
0.00501281
0.04581
0.0680658
0.0403341
0.00881602
0.00545125
0.0247509
0.0754663
0.00586257
0.121105
0.151422
0.114039
0.177636
0.143036
0.131272
0.136765
0.198824
0.0038918
0.14119
0.0583678
0.00360191
0.0604954
0.0028535
0.0125403
0.0154276
0.0170099
0.0769641
0.0665366
0.115158
0.140734
0.0448889
0.0176078
0.101653
0.103611
0.0915489
0.123176
0.0176999
0.126779
0.118042
0.124302
0.00934977
0.140424
0.00467192
0.140457
0.0939353
0.00530393
0.00440445
0.05017
0.132077
0.00561181
0.131066
0.0199186
0.0479291
0.0436607
0.127297
0.00265916
0.112222
0.0384153
0.142004
0.00567489
0.111876
0.00811859
0.00449608
0.149703
0.0310222
0.140588
0.028277
0.108868
0.00188405
0.0310452
0.135648
0.0836926
0.00572859
0.143338
0.00816313
0.0938361
0.135555
0.00807683
0.0132156
0.022993
0.0204963
0.0208368
0.0582547
0.0601027
0.008385
0.0128377
0.0529331
0.101169
0.0067503
0.143419
0.139895
0.00687916
0.121867
0.00390333
0.00253017
0.0149639
0.00757586
0.0143208
0.0104552
0.0158202
0.00631782
0.0084001
0.0100044
0.0107254
0.00909013
0.124662
0.0116432
0.0108075
0.134215
0.0540986
0.140293
0.135179
0.123568
0.123862
0.00645619
0.161255
0.095644
0.219314
0.154547
0.0701095
0.00819448
0.035999
0.046496
0.00146182
0.00921048
0.0717638
0.00940947
0.109823
0.00731351
0.139758
0.0500739
0.05821
0.0607596
0.14074
0.140812
0.0445105
0.0368483
0.0075441
0.0242824
0.0131661
0.139718
0.130936
0.0283141
0.00956088
0.132126
0.161066
0.131405
0.00123126
0.00459233
0.0151238
0.152337
0.012752
0.00827373
0.160624
0.160585
0.159232
0.162063
0.0103721
0.00896341
0.0274879
0.0287538
0.0254198
0.0862371
0.122051
0.0312544
0.0898898
0.00864982
0.066844
0.14455
0.0124885
0.0295828
0.0336932
0.141353
0.146365
0.139891
0.00372125
0.140586
0.0839488
0.00262103
0.0183418
0.0321693
0.0107314
0.00694596
0.0109829
0.00530509
0.14104
0.0477218
0.0557019
0.0105901
0.0220514
0.0313834
0.0181878
0.0121929
0.011884
0.0138714
0.0117791
0.0176643
0.028473
0.00992605
0.00546236
0.0173652
0.012341
0.158514
0.153793
0.143664
0.26729
0.00824023
0.00831932
0.010701
0.142064
0.0144176
0.0458008
0.00309322
0.20712
0.140456
0.140505
0.0723722
0.0743346
0.013561
0.15159
0.146614
0.147907
0.0352814
0.139834
0.00280199
0.0105106
0.00607546
0.0588557
0.0836306
0.117965
0.16363
0.0721553
0.00203095
0.141167
0.104816
0.0124196
0.00271975
0.00530277
0.00299943
0.00362409
0.00246052
0.134718
0.0190433
0.0197866
0.141583
0.133962
0.138841
0.0264227
0.0363165
0.0334357
0.118286
0.139979
0.0988263
0.108294
0.0813159
0.0449544
0.0101213
0.0125846
0.126311
0.0389557
0.0123072
0.00543478
0.129554
0.01758
0.140931
0.0237864
0.0182255
0.00237907
0.0210798
0.0990689
0.114984
0.130694
0.101123
0.118679
0.0713406
0.0796388
0.0216487
0.0768975
0.0818225
0.113289
0.0158603
0.0319964
0.0359281
0.017859
0.00346499
0.00287073
0.0028823
0.087439
0.00126913
0.00851455
0.033547
0.135956
0.0139225
0.0180067
0.024803
0.0227249
0.0301191
0.0290051
0.0680182
0.0168953
0.0187127
0.0559969
0.0651852
0.21826
0.0918865
0.0920559
0.0162703
0.00236696
0.00164744
0.0333443
0.00470595
0.0428332
0.00150312
0.0111324
0.00977113
0.0589071
0.0010326
0.0731531
0.190549
0.108257
0.139493
0.02187
0.00120201
0.0106286
0.184408
0.167236
0.0258944
0.0721555
0.0245073
0.0182514
0.0143695
0.0103147
0.104304
0.00499737
0.00423253
0.00784823
0.00719963
0.0260043
0.0262321
0.0229867
0.00593105
0.00259871
0.102253
0.00450224
0.129361
0.0231542
0.00772791
0.018507
0.15176
0.00390321
0.0504962
0.00612501
0.0441419
0.135195
0.00173665
0.219517
0.258072
0.00354635
0.00201961
0.138925
0.141075
0.141424
0.141107
0.14046
0.00588685
0.135396
0.287809
0.222613
0.136121
0.00401573
0.00224312
0.134548
0.0989441
0.140075
0.140415
0.214938
0.1848
0.00548373
0.00638618
0.00305646
0.0116433
0.00407047
0.00460148
0.00550954
0.00266904
0.140896
0.140857
0.0139555
0.0141019
0.0293749
0.00330137
0.00577247
0.0104263
0.0281504
0.000996666
0.0739398
0.00268304
0.0147314
0.00746654
0.00810667
0.0556897
0.0205152
0.0630174
0.0751677
0.0299039
0.00378752
0.00590912
0.00483916
0.0357838
0.00628222
0.00436869
0.00173045
0.0476502
0.133975
0.0511628
0.221931
0.00821186
0.0073291
0.0276483
0.0498692
0.00221845
0.123806
0.00504075
0.126735
0.118281
0.00281032
0.00544942
0.01419
0.0486018
0.117611
0.0100336
0.01307
0.134352
0.13609
0.112869
0.00653323
0.0875535
0.00443704
0.0113491
0.0134541
0.19319
0.261301
0.0013834
0.0141051
0.0131287
0.0412344
0.0198461
0.00349135
0.0126205
0.107093
0.0133865
0.114423
0.0115011
0.0349604
0.00569239
0.0190459
0.00754464
0.137665
0.0479495
0.149563
0.137685
0.136996
0.00365038
0.0152675
0.0132814
0.0717628
0.015626
0.0186307
0.0869981
0.0760667
0.0083745
0.00801404
0.0125626
0.0197608
0.00421597
0.072295
0.00250902
0.00269383
0.0067
0.00396546
0.137167
0.138388
0.141875
0.138963
0.141796
0.00413867
0.00731177
0.0118596
0.00474913
0.14383
0.00470062
0.156086
0.00493128
0.0103867
0.00129824
0.0121034
0.00593477
0.00132907
0.00504516
0.00263938
0.00157798
0.00595956
0.0857173
0.0746543
0.0666495
0.0483084
0.0472363
0.112398
0.112025
0.0126573
0.00673148
0.0138148
0.0424054
0.146222
0.0891516
0.0129557
0.00131872
0.0119146
0.145521
0.00512928
0.00477419
0.0691062
0.138421
0.00306701
0.00155377
0.00333461
0.0956743
0.00146487
0.139637
0.13495
0.0399967
0.145959
0.145666
0.002792
0.000821671
0.0454953
0.0202125
0.00266585
0.025834
0.00656206
0.0703193
0.14564
0.00192619
0.0461424
0.0341671
0.0854332
0.0320337
0.0150521
0.00789276
0.0146593
0.0111621
0.00863065
0.00950603
0.0227327
0.037384
0.0410004
0.138441
0.0348864
0.0655278
0.0185787
0.139975
0.0234794
0.0132314
0.0221782
0.0167098
0.156174
0.0117927
0.0138996
0.0311323
0.0420374
0.144699
0.0188759
0.0886775
0.0178389
0.0894297
0.0151311
0.140655
0.141094
0.140682
0.0518693
0.00905532
0.0190108
0.0880589
0.0263851
0.00779056
0.0232495
0.0318702
0.00100843
0.038185
0.0195081
0.0471114
0.0130299
0.0505412
0.0428938
0.345711
0.0147623
0.0555519
0.0338978
0.00458381
0.0469151
0.0739694
0.0128914
0.0272979
0.0128434
0.0451398
0.0143001
0.0298135
0.00685868
0.00395862
0.0337896
0.0142762
0.00905787
0.0340743
0.0398064
0.020847
0.0399899
0.0547156
0.130622
0.0116303
0.00224335
0.00296588
0.157386
0.0105992
0.0163709
0.0127126
0.0737405
0.128475
0.0108331
0.0247417
0.0100238
0.00484818
0.111235
0.088319
0.140138
0.109687
0.0176242
0.00679535
0.0210509
0.00789347
0.123297
0.0161561
0.0929598
0.138401
0.0179722
0.139588
0.00661216
0.119841
0.0148148
0.0360295
0.0167932
0.00359301
0.00629455
0.023245
0.00647182
0.028105
0.139387
0.0119696
0.00866879
0.0026679
0.0243826
0.0956751
0.00265891
0.0460703
0.0442614
0.0147727
0.067793
0.00492722
0.00950555
0.00804112
0.00494171
0.0289279
0.0229712
0.116773
0.029309
0.0285871
0.014173
0.0126685
0.00449618
0.0282041
0.00991254
0.00671566
0.00190412
0.0372171
0.0149824
0.00774986
0.130006
0.136665
0.012929
0.00650844
0.00832635
0.0133432
0.108335
0.01466
0.0138621
0.0147736
0.00123771
0.130878
0.00156957
0.0771011
0.00529924
0.11605
0.00919307
0.0106244
0.00369829
0.00127041
0.107226
0.0943752
0.0320444
0.00362959
0.008512
0.00598104
0.00159068
0.00474863
0.00269753
0.00217915
0.00610959
0.00356858
0.00487909
0.00538829
0.0994509
0.0919739
0.00106542
0.119645
0.142702
0.12023
0.0208388
0.0028462
0.00516892
0.024242
0.0178009
0.12376
0.0195615
0.150502
0.0250744
0.0200536
0.0135271
0.00198892
0.0319363
0.0377513
0.0318006
0.0189003
0.0172372
0.0189617
0.00642334
0.00139646
0.0271323
0.05356
0.0333093
0.0142508
0.0168408
0.00823613
0.0324598
0.139565
0.00134837
0.00192308
0.00359855
0.140033
0.0119895
0.0196131
0.0010139
0.00847483
0.00201999
0.03679
0.0017268
0.0173118
0.016832
0.0684657
0.0133319
0.00262448
0.00122573
0.0281345
0.0103875
0.0900594
0.0295058
0.0215754
0.0246542
0.00457752
0.0206485
0.0203981
0.0323108
0.0364488
0.00132294
0.00361605
0.0169578
0.00222549
0.004029
0.0422234
0.0255152
0.00222537
0.0160988
0.0166907
0.137243
0.00770305
0.00938479
0.0304942
0.0113041
0.0112974
0.00472111
0.0376748
0.00426618
0.0445333
0.00821336
0.00817262
0.024631
0.0230391
0.0319739
0.00109818
0.057101
0.0262045
0.221774
0.027848
0.0285415
0.218683
0.126393
0.060361
0.00999301
0.00144155
0.104444
0.073878
0.0959421
0.00158814
0.0161165
0.0164365
0.0149021
0.0738872
0.0466573
0.00191636
0.139218
0.0153745
0.00120378
0.00271126
0.0146999
0.0717481
0.0243481
0.0233977
0.0112138
0.128889
0.0118093
0.0225131
0.00994267
0.0201868
0.0108564
0.023563
0.0060766
0.00257065
0.0203376
0.0576986
0.00914237
0.019106
0.00701631
0.00187788
0.0172967
0.0268858
0.0238708
0.0104033
0.0167235
0.035156
0.0329348
0.00870355
0.0362495
0.053282
0.0226115
0.000951069
0.0155383
0.0304425
0.111419
0.0107182
0.107149
0.100097
0.0944974
0.277795
0.0142699
0.27301
0.350318
0.00153704
0.0327851
0.00474254
0.0195207
0.00183888
0.00581479
0.00864148
0.140813
0.00767339
0.00997111
0.00545665
0.0502422
0.0253315
0.0119748
0.00379768
0.0251507
0.0342953
0.255737
0.0545469
0.0274084
0.0253473
0.0301295
0.0461654
0.0304598
0.0494425
0.116664
0.0467076
0.113636
0.053865
0.00841131
0.0122017
0.0100694
0.0188985
0.0112395
0.0126679
0.0396967
0.0245448
0.135264
0.00250732
0.082243
0.00847223
0.00603498
0.00869929
0.0585592
0.00942673
0.0830437
0.00167236
0.0583581
0.0312332
0.0552654
0.0835723
0.0282914
0.0362749
0.0106176
0.0403332
0.0361296
0.092594
0.0131759
0.0148901
0.00647826
0.00988047
0.0155472
0.00973881
0.132201
0.00195997
0.00146523
0.00600358
0.0153816
0.0390988
0.00421945
0.0736842
0.00385007
0.0203099
0.00226822
0.00509181
0.0911709
0.0137713
0.00145096
0.0122481
0.0048787
0.0292983
0.0104652
0.0210015
0.00484967
0.00219218
0.0010459
0.0145842
0.00590682
0.00101669
0.00131367
0.00899887
0.00829077
0.140494
0.140222
0.140435
0.0259261
0.002108
0.00612303
0.0116317
0.00300468
0.0335637
0.0311194
0.00606756
0.00928585
0.0564875
0.00970988
0.0109029
0.0252364
0.0236051
0.137953
0.0144238
0.0503444
0.023112
0.0295298
0.00195295
0.0380695
0.00483791
0.00238462
0.0018748
0.00348192
0.00246698
0.00182406
0.0183828
0.00410967
0.0317816
0.0287157
0.0256481
0.0276166
0.026723
0.0121522
0.0240867
0.00830488
0.0389756
0.00790157
0.116238
0.1904
0.0065469
0.119701
0.00112489
0.00526684
0.0245287
0.042875
0.00961165
0.0386956
0.032488
0.00583958
0.00767239
0.130079
0.0104283
0.0263295
0.0260709
0.0573683
0.00751997
0.0287664
0.00352748
0.0274445
0.00241273
0.141117
0.00492145
0.00256654
0.0167616
0.0100818
0.00172381
0.0054729
0.00717648
0.141123
0.141327
0.00274866
0.00270681
0.135964
0.0153705
0.122222
0.00395001
0.0103112
0.0125114
0.00184204
0.0371489
0.0130396
0.0202564
0.0151428
0.012927
0.0153016
0.0145943
0.00446346
0.00340794
0.0195407
0.015962
0.0178995
0.020397
0.0123394
0.0139623
0.0156285
0.00263405
0.00381175
0.00448222
0.119508
0.117384
0.00331651
0.118316
0.00473562
0.00495923
0.00110174
0.0221375
0.0185851
0.0225596
0.0109309
0.0122239
0.0147357
0.0154354
0.00132171
0.0159908
0.00121942
0.00878087
0.0100984
0.140349
0.00165939
0.139551
0.00791681
0.00649113
0.00316717
0.015561
0.00952871
0.00167968
0.0409593
0.0100053
0.0037613
0.00702495
0.00682795
0.00592798
0.0128201
0.00636072
0.0140156
0.00747252
0.0140654
0.0130051
0.0497399
0.0463848
0.124133
0.0162741
0.00320875
0.0298907
0.0339873
0.00857269
0.00459504
0.109541
0.112008
0.0146322
0.00208222
0.0107125
0.0689956
0.00468449
0.00127883
0.00976027
0.00908462
0.00119502
0.0021612
0.0197316
0.00240141
0.0185513
0.0372819
0.00254468
0.00134688
0.0417692
0.00864786
0.0676191
0.0737561
0.0100273
0.0219767
0.0216871
0.0263041
0.0345141
0.0310778
0.0367093
0.103124
0.00849003
0.0227368
0.00996856
0.0303479
0.00378101
0.011557
0.00266858
0.00272603
0.0108641
0.00384102
0.000929445
0.00260251
0.101672
0.00599057
0.00193121
0.00632103
0.00104583
0.00488635
0.00379202
0.0923807
0.00129246
0.00132762
0.0113323
0.00926015
0.0192431
0.124379
0.00795206
0.123161
0.0809081
0.128695
0.0208325
0.0108736
0.00374129
0.135284
0.00103874
0.136498
0.0823099
0.0249769
0.0155831
0.00362201
0.00109691
0.00192682
0.0222511
0.00524263
0.00166974
0.00370599
0.00188126
0.00407303
0.00115109
0.00430196
0.00579559
0.00464985
0.0115254
0.0122411
0.00525192
0.0110878
0.0124893
0.0717212
0.00201614
0.0373112
0.139242
0.0175722
0.013126
0.138413
0.00174514
0.0039899
0.00670162
0.00310562
0.00930775
)
;

boundaryField
{
    frontAndBack
    {
        type            empty;
    }
    outlet
    {
        type            freestream;
        freestreamValue uniform 0.14;
        value           nonuniform List<scalar> 7(0.127929 0.133282 0.229406 0.217071 0.413559 0.399157 0.0920559);
    }
    walls
    {
        type            fixedValue;
        value           uniform 0;
    }
    inlet
    {
        type            freestream;
        freestreamValue uniform 0.14;
        value           uniform 0.14;
    }
    airfoil
    {
        type            fixedValue;
        value           uniform 0;
    }
}


// ************************************************************************* //
