/*--------------------------------*- C++ -*----------------------------------*\
| =========                 |                                                 |
| \\      /  F ield         | OpenFOAM: The Open Source CFD Toolbox           |
|  \\    /   O peration     | Version:  2206                                  |
|   \\  /    A nd           | Website:  www.openfoam.com                      |
|    \\/     M anipulation  |                                                 |
\*---------------------------------------------------------------------------*/
FoamFile
{
    version     2.0;
    format      ascii;
    arch        "LSB;label=32;scalar=64";
    class       volScalarField;
    location    "200";
    object      p;
}
// * * * * * * * * * * * * * * * * * * * * * * * * * * * * * * * * * * * * * //

dimensions      [0 2 -2 0 0 0 0];

internalField   nonuniform List<scalar> 
2283
(
-0.65456
-0.89554
-11.1233
-11.2561
9.46323
9.87803
-4.91021
-4.6201
-18.3093
-163.93
-205.197
8.07702
-7.8777
-8.74133
10.3154
0.429577
-1.48174
14.1846
-1.3922
-26.4525
-12.6118
-12.6919
-1.26546
-1.30489
-1.37455
-1.72282
0.805691
-26.3378
1.18497
-16.1872
-16.1139
3.08915
3.65033
-1.47591
-1.16213
1.04955
0.823936
-1.5603
-1.49741
-2.0781
-3.25238
-8.35837
-28.6148
-28.1077
-29.6567
-30.6924
-9.40027
21.2564
21.9765
-0.0448102
10.4159
-0.273778
-33.175
-22.6865
-13.26
-20.0415
14.4409
13.9708
-14.9067
-12.1047
14.6777
-22.8512
-20.5237
-26.5211
-11.1702
-2.49576
-2.63335
-24.9193
10.219
-21.964
8.30021
2.25152
-8.70165
-0.848153
-4.69187
3.06445
0.403389
-0.495233
-2.52461
-2.33291
-0.425263
0.185048
-21.9303
0.614075
-22.3141
0.532375
-39.1709
-21.0352
-25.9919
-25.8735
-9.0511
-89.925
-21.0428
-1.68556
-1.41017
0.900512
-7.43911
-17.5408
0.638499
-18.1173
-14.2783
-10.8888
-2.23316
-25.0594
-27.207
-94.5627
-2.77402
-2.38784
7.91453
7.70447
-2.87975
2.3137
1.71514
2.08709
0.407883
-56.7346
11.2452
0.664826
-18.8563
-0.507383
3.04545
-19.4877
-0.574785
-0.981085
-27.749
6.77334
-9.74281
-19.0132
-10.6969
-27.1013
5.94695
7.26735
9.25804
-4.58929
6.03275
12.4802
-1.76201
-1.95554
-10.6453
5.26008
15.1089
-2.56208
-5.02184
8.06914
13.1426
-10.9901
-30.8947
-0.801654
-1.04202
-4.66461
0.806071
12.1496
4.10902
3.44503
-10.0282
5.71053
-16.3278
-10.1821
7.18287
-16.0683
15.5433
-2.25747
16.3701
-33.7346
-7.40749
-30.1698
-6.1694
-15.8845
-3.26854
5.57369
-28.7887
-28.5022
-12.0591
-15.9725
-4.71819
6.09809
-27.9153
-27.3981
-27.4413
-10.523
-9.29822
23.3875
24.9206
-24.6528
19.2441
19.7789
-23.5732
11.7192
10.7581
-4.0615
-9.03557
1.19556
-2.34008
-2.8373
20.567
18.9937
11.4728
11.2946
-22.9294
-23.4969
10.7656
10.6266
-10.2188
-24.1863
-10.5437
-10.6769
-74.3701
0.656943
11.9656
20.8482
-1.6862
-1.61291
-13.9316
8.79768
-11.4578
7.39333
-39.8556
7.86193
-13.8036
-14.5606
-9.81252
8.24
-15.1161
-11.1702
8.28118
-15.8867
-9.97972
-15.1623
-10.9193
-0.151593
-15.1924
7.71458
-12.4338
-24.1231
-23.3817
-3.56602
-14.3589
8.45017
-16.3484
-1.60851
-8.91513
8.08873
-15.0641
-2.06648
-9.42212
7.71229
-15.1331
-15.4231
6.98627
2.8362
-1.10231
-20.7054
-20.4889
-7.94554
-19.7838
-9.04124
-22.2579
8.96776
8.16022
-38.8112
-38.6868
9.0227
11.6505
-9.8333
-90.7115
-16.489
-6.72258
-0.751703
-14.0866
-0.689227
9.82281
9.63092
11.5678
5.6944
12.398
5.59241
-14.6478
8.92296
-40.2005
8.4983
8.51604
-49.0141
-15.2848
-10.3172
-9.38314
5.54209
-23.2461
-13.1428
-13.1942
19.6941
19.02
2.34914
-23.824
-30.6892
-16.3033
7.45447
7.26043
-28.6175
-4.80487
-29.2232
-31.7582
7.36354
7.5155
-1.42667
-1.46899
-1.14562
-0.884335
12.8749
-8.88392
-10.0835
-0.472622
-2.27036
-0.942742
5.49191
4.40404
17.8376
16.9381
-21.9769
-1.93197
5.8166
12.989
-11.2027
-2.08726
-11.1498
11.1807
11.2395
10.8662
10.7297
-20.6426
-12.5186
-17.3269
17.4074
18.0726
10.0247
-1.49151
-1.64943
10.3132
-19.7787
4.30531
-10.9429
-4.95085
3.33847
-58.2558
-65.5805
3.85394
-10.404
-12.5615
-18.1851
-14.8326
-22.0085
6.15195
-42.7372
12.4462
-4.29373
-1.30196
12.084
4.62477
8.57488
8.94005
8.48034
8.69091
11.4788
-46.514
-44.1641
-3.86126
-9.69422
14.8782
-22.0866
-74.0186
11.4517
11.676
-28.7371
-3.35025
-28.907
-19.1014
1.46772
-3.13208
-56.4918
-65.8579
-82.5122
-16.2611
2.6042
-1.14179
-0.357777
-0.259799
-26.91
-1.35962
-15.7504
-15.1646
9.98211
9.80394
12.0547
-9.80379
-19.1143
-28.0409
-9.72483
-27.3411
-18.6421
-77.5542
7.21806
29.6618
12.9946
12.81
13.2564
28.3656
13.5906
4.90539
-11.4572
-10.9559
-11.2935
-21.3981
-18.0957
19.2747
5.91196
11.1365
11.3089
-2.35195
10.6434
10.2876
-9.8448
17.1859
22.3053
4.67243
-1.47202
29.1465
-1.31768
-1.03662
-1.0039
16.874
11.4903
-1.16746
7.30974
6.59737
11.0823
2.54385
-1.4043
-1.50921
-1.48807
8.69474
-20.5253
5.27515
-2.53975
-1.16396
8.15689
1.21278
7.34512
9.34069
-11.8779
-9.60772
5.596
-11.755
9.44895
5.94395
12.2561
-1.22867
17.9469
5.55353
14.4835
-1.42149
-2.01313
-1.68834
19.6813
-22.5249
0.364018
9.6571
13.3868
-16.0963
-1.33731
-0.529816
0.227382
-1.26981
-22.3563
-30.2195
-1.23972
1.96269
0.827785
2.22996
1.97585
2.69747
5.81973
-15.5734
-5.32734
-0.762823
5.16393
-1.53591
-1.60567
-15.9869
3.37309
-4.46595
23.698
0.473581
0.881679
0.3792
0.612771
-1.42057
-1.27954
-17.2345
-1.11927
10.4858
-1.33588
-17.326
-13.588
-1.80227
-1.63646
-13.3557
-14.0932
-33.2693
-1.85242
-1.61633
-1.69892
4.17422
-1.27635
-1.7
-1.83333
-2.23693
0.085317
-0.0233743
-33.8888
-26.2895
-24.1622
-24.1689
-26.4424
-1.08791
-1.1176
0.299541
-1.66993
-0.764043
-1.9941
-2.78081
-2.77628
-1.80607
4.56557
-10.0587
4.88991
2.84895
-2.5875
-2.36095
-2.3103
0.623242
-2.60993
-38.7207
-36.0462
-16.0946
-20.6302
-14.571
5.36722
-11.106
-1.94731
0.51102
-0.0355196
0.247304
-1.45401
0.36136
0.341408
-0.0216188
0.447832
0.258867
-0.959504
-0.0685192
-1.53981
9.83082
-12.2499
-12.484
7.47665
-12.8204
-12.4781
7.57414
-1.92001
-0.948179
-1.21631
-1.57859
0.499174
1.47038
8.64577
-0.824359
10.1316
4.1986
-4.31146
13.4222
-3.10101
-2.81063
2.21067
-1.52178
8.31614
13.529
-4.56583
4.13096
-1.77077
-3.10512
-3.85907
11.1146
-3.28465
-1.07675
11.0914
4.54751
0.602388
0.47815
-1.61404
0.847513
-2.60692
-3.11484
2.03358
1.56785
14.832
-4.41936
-2.01972
25.9616
-2.44406
-0.70201
1.41892
-15.4663
15.0167
-15.107
25.6274
5.65253
-1.34098
-0.871458
-1.14408
-1.22473
-0.126841
3.45418
-1.15989
-1.15417
-0.874272
0.375741
0.109689
-20.2623
-1.22682
-1.61143
-1.19519
-12.9591
-21.2064
-11.8965
-3.13304
-6.33101
15.4195
-1.42729
-1.23218
-12.9181
4.88294
2.11038
-2.80509
-20.1467
11.6919
15.9264
-5.66913
1.35768
1.01758
-10.4144
5.48809
0.0203448
-2.62014
3.79669
-1.50014
-1.76449
-9.38694
-2.2174
-1.30717
-7.87467
14.1537
-1.40382
-1.12554
-13.848
-22.0972
-1.60746
-16.2868
14.2785
-2.42465
-2.62696
-0.55941
0.20032
-18.0467
-1.11593
-15.4462
-1.36458
-0.748786
-15.5761
-0.370211
-15.1339
-10.2735
-16.4413
-16.0574
15.0138
12.6421
17.0115
8.33248
-43.5494
-0.961392
-0.763085
-1.62898
1.06992
-2.27978
14.2087
-15.5656
-15.1237
-0.862311
-3.08706
-15.284
15.7722
-13.3882
-12.1794
-11.4855
7.51941
-13.3301
13.7908
14.1982
14.4535
21.9129
1.19613
14.265
0.914591
5.67342
-10.479
8.27165
13.5261
-10.4489
-11.9343
-1.15354
7.89482
-1.32768
-0.217483
-12.0032
-14.2507
-14.2692
-16.9805
-17.0831
-0.504575
-17.4452
3.2651
-1.32778
-1.19277
-41.3242
-12.0954
-12.7747
-13.5874
-12.4333
-11.5832
-0.513913
-11.9877
-0.599238
-0.0636156
23.1098
24.107
-22.0644
0.192354
-0.0480213
-11.3813
-0.363848
-2.06064
2.21765
-39.6413
-37.379
-22.608
-13.0834
-6.25627
-1.4686
-1.36433
4.78984
13.939
-7.25875
-9.94687
-1.19615
-1.12592
3.24128
-13.3845
-0.936729
-22.4569
-39.4213
4.08329
-13.3158
2.50253
-30.5212
-17.0877
-0.888911
17.9615
14.1714
10.3148
10.2475
10.7116
-36.6049
1.88474
4.02622
-1.01322
-0.944663
-0.580475
-2.12611
-2.18741
-18.0709
-17.3263
-0.581353
2.6889
-0.290763
-29.8673
4.2785
1.32578
-9.88514
5.18871
-9.65714
-0.173326
-13.7066
-0.319259
-23.3882
-28.2823
-30.5604
-30.3463
3.61883
-47.4408
0.702074
-22.7117
-3.35944
3.68089
-49.1279
-47.0841
-19.7463
-2.79797
-3.47185
10.7429
-1.05576
10.744
19.7981
10.8501
15.7744
-36.0734
15.5198
11.8899
11.6974
12.24
12.2305
-111.337
-23.362
0.532827
-2.08486
-10.1367
1.50147
-10.7392
1.18814
-3.55754
-1.4328
1.23577
0.902156
-1.18719
0.783629
17.1056
0.426588
-1.93379
4.97734
10.3904
-0.0226421
-2.77326
-9.30649
-38.4915
-0.516061
9.80716
-1.00046
-32.1985
-0.63836
-2.61797
-35.9069
19.9731
-19.066
-11.2905
-2.96946
-12.897
-14.1024
18.6473
18.3284
-17.2932
-19.738
-2.04713
-18.9975
-2.89041
0.106454
-0.0941208
-2.91613
-2.69734
-3.01348
-25.1064
-1.58838
-1.44243
-1.27771
-0.618746
-2.7293
-2.31286
-1.0027
-2.76865
-0.940764
-44.4464
-2.73206
-2.09227
-45.2578
-14.2072
11.3488
-4.13528
-27.9523
-4.2472
-2.8297
-1.46216
12.0264
-34.0053
-1.75727
1.22768
8.53077
9.82787
1.58823
-2.22705
-3.55659
-1.92998
-3.70844
9.69751
12.8683
-11.6615
-3.16464
-11.4363
-17.0259
-22.113
-3.37295
-41.349
12.9596
-41.1215
20.0157
22.5057
12.2703
12.6336
-43.7581
-5.35414
-1.18986
-1.14029
8.49137
-1.1855
-33.1503
-34.086
-10.203
9.10246
-20.2048
20.3588
-10.6325
-2.37168
-5.90543
20.0681
-5.987
19.2323
18.2435
-2.87947
-40.8437
6.3508
14.4573
0.513808
0.807728
14.3714
-10.0322
13.6291
22.5786
6.13138
11.5884
11.27
-14.1831
14.2734
-9.20133
32.7208
17.1188
6.45508
8.95818
-8.60069
11.8866
-1.7406
3.16218
10.6554
-3.16924
6.83268
6.46614
-0.436539
-0.165073
6.57301
-39.7424
-1.41461
-10.6402
-3.86552
-5.97988
6.84142
-24.8851
8.94436
-43.456
-23.7656
-14.7894
-14.4868
-14.5221
-1.17952
-43.7517
-11.5308
8.3167
-48.7414
-1.10466
-17.8883
-47.0747
-6.32608
1.65012
-14.9106
-15.0053
-23.0419
3.13366
0.30174
6.77267
-4.95441
-5.1298
-9.90301
-8.09065
-19.7646
0.336138
-10.4993
-9.68934
0.0211826
5.91301
-3.89658
-3.2797
-9.48746
-3.10079
11.4902
-3.33957
-9.10495
-7.88863
-3.01432
-2.71076
-28.6097
1.86658
1.25939
6.0849
0.440216
1.01667
0.44911
0.22337
-22.4783
-22.7439
-28.6028
-11.3359
-35.3308
-2.41154
-2.42271
-36.1303
-4.25455
-10.7906
-23.4331
6.95743
15.8847
7.63295
7.436
16.4495
-0.558457
16.3765
17.9495
-23.4831
-22.9043
-11.7345
-5.68911
18.568
-33.6217
-13.7938
-13.6312
3.41759
-0.861485
-2.76919
-6.27824
-7.42143
-21.9951
13.9256
-10.9763
-11.8379
3.05169
-18.119
-18.5135
-18.5758
-11.6737
-10.0515
-58.1851
-3.06239
16.9391
-2.36684
-1.43441
-2.67697
-1.80597
-2.36141
-2.13426
-1.98464
-2.87821
16.195
-0.671083
6.21983
7.11395
6.7324
1.59356
12.2427
12.2173
11.8953
-2.68545
-8.52353
-1.48451
-1.28884
3.96128
7.60361
4.77796
5.50742
-12.0963
2.86126
7.3467
2.98542
4.1028
3.66973
11.3922
-0.954932
7.61501
-1.11361
-3.27114
-36.5654
13.2149
4.97444
2.79695
-35.9137
-5.37602
-21.9927
-11.7658
4.38393
-2.68192
10.5551
-8.86919
5.67046
-1.80737
5.89062
-8.02744
6.34797
6.4324
0.130882
7.2876
-1.22232
5.60952
-9.326
2.76286
6.63566
-3.78792
-3.93785
-20.439
-1.97402
-19.7206
4.83817
1.40232
-20.4867
-7.37295
13.4352
13.4392
16.2326
-25.0051
-29.2923
-26.2551
25.9439
-36.6705
-1.11911
-48.9205
0.202119
-0.741276
-9.71382
-1.1119
-51.2164
-25.512
-15.1104
-49.9499
17.2634
16.9829
-73.8249
-52.3059
-17.8869
-18.5621
-26.7011
-27.3065
-1.90544
-27.3697
-27.8537
-1.39307
11.9732
-1.44554
-1.87088
-0.42135
-0.0687319
-26.0604
-2.60374
5.67639
-1.22082
-2.30166
9.44299
-27.1113
16.6669
13.1157
-25.3379
7.17779
-16.4643
7.25288
-0.675926
7.13305
-1.12348
7.44086
-16.6437
-15.4644
-1.58728
-1.41431
-28.5354
-30.1513
-42.4961
-12.6061
-6.87127
-1.53267
2.59718
-15.9819
16.8001
2.09527
-2.48242
-1.44834
-16.7015
-10.0111
-68.6842
-2.72874
-90
-84.1195
0.880391
1.26151
0.945658
1.30038
-24.6522
-24.8554
-15.5216
7.02619
7.04968
-1.20081
-1.55546
-49.1286
-1.37928
-6.00342
10.547
-0.973542
-17.7601
-15.2316
-18.0962
1.02016
0.94971
-1.15441
6.40372
-1.51725
-1.20897
5.02877
-55.0683
-16.0787
-18.0899
-10.1876
-24.2362
-10.3829
-2.15157
7.90388
7.39276
24.6085
-7.54198
-5.93828
-5.00694
-74.5835
10.0475
9.79699
-13.811
9.8877
6.24964
-17.5079
-10.4443
-8.1738
-22.2902
-2.06824
-0.793084
-0.854238
-2.6944
14.0838
12.2661
14.305
-2.30139
-19.1284
7.07838
24.5463
-1.69078
-2.06153
-1.83474
10.2969
10.6828
-58.6956
-1.35841
-1.706
-2.99197
6.78512
-1.15937
-13.97
-13.9248
-2.77282
13.9794
9.4717
-0.464179
-2.8551
11.3057
-14.8972
-0.774251
-1.66053
3.43984
-19.347
-39.2791
-37.9765
5.49842
5.04378
-4.09002
10.2356
9.96676
-2.91648
-3.82802
-0.361509
13.1422
-14.3878
-14.0249
-6.75516
-0.412707
-14.4965
-1.26539
-1.21666
6.60097
9.08125
9.15658
-5.87647
6.4757
-12.4152
3.30775
-5.52738
14.2772
-0.742247
14.2871
14.5291
3.85778
14.5979
-1.03345
-0.964131
-5.0722
-13.4162
-4.95297
-0.996575
-1.14557
19.7187
-1.13994
-1.20346
-5.18858
22.4765
12.24
12.0577
-12.7182
-19.6848
-19.8212
-11.0558
-8.87489
-12.3958
-35.1776
-1.05716
-0.214765
-19.2061
-12.5672
7.49049
7.75383
7.80027
7.47285
7.93401
20.4803
15.2546
8.18609
7.54717
-1.77622
-0.458735
-0.215123
16.8666
-50.2283
-8.59993
5.15773
-112.205
13.345
-12.7113
-34.141
-33.7871
7.75757
-9.42302
-1.39588
-2.60562
-7.75304
-2.08191
16.0283
-9.14151
14.4018
-0.831795
-0.106804
21.0602
12.417
15.6322
16.1837
-8.16878
11.7829
6.39239
-14.0781
-13.9903
-14.0191
-12.3508
13.748
13.8889
-6.57032
-29.3212
-45.3881
-8.20424
-69.5397
3.3584
6.71825
-10.2941
-26.6434
-2.88726
-56.3645
6.21187
-10.6563
12.8734
-2.81603
-10.1535
-2.09542
-3.59989
-10.2431
-56.7404
-3.22006
-0.655359
-0.398909
-0.234644
-0.0337808
7.08974
2.09301
-0.247987
-0.457161
1.75812
11.2655
-15.2513
1.77094
-9.52168
-1.25165
-1.34327
-4.47493
-2.94885
11.2372
-15.3655
-33.4276
-24.5034
-17.0924
-10.5557
21.8805
11.6137
-0.881794
-1.13081
14.4862
-22.0228
13.1178
21.2354
19.5113
20.5505
-59.0792
-15.0941
0.811497
-98.6873
18.1875
-9.50976
-9.72204
15.1721
18.845
13.5687
7.67621
4.6487
5.34434
5.62973
5.15121
-19.3302
-9.91395
-10.1292
-2.79892
-16.6066
-4.56969
2.44008
-2.74327
-14.9464
-84.4054
1.13096
0.0672928
-0.144849
-3.64978
-30.3743
-3.76186
4.26548
0.423114
-25.469
-26.0032
16.4978
5.17767
23.372
22.2647
-4.4234
-3.97612
6.58766
-14.3435
-17.9853
-20.6431
-10.7806
-18.2078
-0.327753
-0.826598
-36.5139
7.66385
-18.8203
18.1917
7.79807
-13.544
-18.3914
5.61413
-10.2906
5.05138
-10.5235
18.9557
7.4342
-12.9624
12.2469
-3.4703
8.80578
-1.35479
-3.58921
-1.2025
-13.7045
-14.7047
7.92476
-16.8947
8.10725
8.1063
-18.7907
-21.2083
5.9218
-17.8258
-11.7444
-12.3399
11.8995
12.9693
-21.8147
12.3049
-33.5302
4.32785
-1.35105
-1.34496
-1.93835
-3.07638
-1.7744
5.04532
-17.1252
-11.3295
-17.5742
-2.03529
-21.4728
-2.29874
-13.7329
21.767
-29.7069
20.7861
-12.0888
-13.6475
-21.0928
-34.5352
-33.2159
-21.198
2.04035
6.55032
7.07683
13.906
14.4086
6.11735
6.49751
-31.8434
-17.8557
-32.1458
15.2845
-1.79263
1.37324
-34.1299
-21.1544
-15.5918
-1.71026
7.14044
7.28487
1.34859
0.165666
-34.3528
-34.9369
-12.8586
-15.514
-11.1334
-1.33039
-0.250533
-11.2381
-1.75861
-1.58011
-11.7167
-11.0799
-10.4654
6.92811
-10.3304
-34.8799
-13.6587
2.51967
-0.480743
-12.5405
2.25233
-17.0016
-13.2925
-17.5369
-16.2401
-13.2787
4.31198
-37.5861
-36.8675
-37.9771
4.60004
12.3156
12.3418
-2.27528
12.7946
-10.6425
-21.3634
0.531644
9.13707
-14.9624
9.40805
9.2995
-1.08391
-20.8475
9.3474
17.0431
17.1507
-1.08843
9.51796
-13.5878
-16.8115
4.25094
-11.9117
-1.22284
-0.991735
-1.18821
-0.489439
-13.0807
4.07089
3.575
-25.5543
-14.3921
-24.8999
10.6297
-13.324
9.995
15.5192
9.94038
-24.723
10.2235
10.38
-3.85948
-16.4829
3.08062
9.15424
-28.0969
-14.2821
-1.01588
-13.8793
9.05122
-13.4836
11.9108
-13.8304
9.26719
5.21193
-12.1174
15.7961
-13.5891
-14.4955
16.1826
11.06
8.21381
11.5108
15.0374
-4.02976
-14.5494
-28.4482
-22.2754
-1.64276
-14.5936
-11.8735
6.09809
5.84088
-4.59806
-20.7962
20.3879
-12.6464
-27.7086
-0.554004
-0.794851
-0.605814
-0.45263
9.10367
-12.9493
8.95021
-31.7068
-3.95372
25.2534
-1.13345
-0.954151
10.9036
-0.881653
-15.5112
-3.04958
7.23961
11.0448
-20.5781
16.7847
21.3428
9.94906
-21.9277
9.50196
-1.14094
19.3373
-21.9287
18.9487
9.60944
-0.377187
-22.7054
17.2395
17.1859
-14.641
11.4507
7.13253
-21.0453
-47.3658
-15.6254
10.8093
11.1309
-8.64463
-11.8448
15.5232
16.3105
21.8734
-16.985
19.8604
-13.3894
-10.8885
-15.5702
18.1778
-23.8118
-13.8549
-1.61096
-1.87661
-23.271
-12.4968
-20.7248
-23.8611
-10.8979
-20.7068
6.39035
-24.7202
-8.58058
1.26896
-22.5424
0.32785
6.94454
5.87789
-50.2249
12.3785
-14.5773
-16.1649
0.944897
0.4173
11.2412
-15.1567
-32.0921
-34.1594
-17.0429
-18.6657
-26.6538
-30.0617
-19.2456
-220.126
-15.2042
-19.4911
-0.822975
-1.0291
-13.1876
-0.712638
-1.97481
-1.30943
14.8416
-19.2669
6.78136
14.8019
-9.92678
-1.0607
-16.0202
-1.03282
-11.7567
11.2775
13.3496
-18.2998
12.8585
13.7148
15.126
-33.0006
-31.7353
-30.7284
-15.9794
-26.9144
10.2189
-11.4861
9.73744
-15.4932
-24.6446
-13.1067
-48.6393
-2.80903
-14.1929
-10.9597
-10.3456
-2.92531
-12.0497
11.5061
-10.0708
5.32408
-10.0009
14.8442
-0.167301
-14.3708
-13.9897
-13.6956
-15.3921
-40.5748
-14.6562
17.5642
-11.3858
-14.7049
14.3119
10.4693
10.4369
-12.9367
20.6401
10.7643
12.8026
2.52316
-13.9789
2.93689
-15.9831
-14.2303
-13.0374
17.3708
1.21997
-12.9662
-37.6486
2.95359
1.28092
-29.0246
-23.6212
16.9279
-28.5218
14.7156
5.51932
16.1839
-43.164
-36.8005
-16.6429
-23.3638
11.5805
21.3134
14.4425
-11.176
-20.9142
8.67351
-2.11552
8.37571
8.79169
-1.71119
-5.57749
-19.4438
-16.458
-20.4214
-0.637504
-0.875125
-0.69172
-26.8375
13.4074
13.446
14.8634
-10.2339
-21.8445
-11.2928
1.02354
15.294
-10.9856
4.00176
11.5496
-19.0713
-13.2223
15.3887
11.5796
-0.980064
-12.8824
-12.9347
3.70311
7.23053
-13.5665
7.26988
-60.3572
-18.8826
21.7012
-0.314685
15.3177
16.8198
-35.9824
-37.7758
-18.2005
8.18226
8.14225
-13.2978
-18.825
-8.66616
4.33285
4.59613
11.8161
-13.7547
-15.7239
-12.0246
-27.1164
12.1619
-9.58299
-23.1204
6.85104
7.78685
8.32956
0.280056
8.43129
-0.361541
4.87386
-24.6117
11.7623
-13.2428
12.6706
-33.8661
-20.4268
9.46214
-0.930334
10.3631
-30.8241
11.8989
11.931
-42.235
9.18767
12.2881
12.7153
-32.5452
-2.48647
10.9307
12.7937
12.3991
13.9777
-37.6377
12.491
-28.5228
3.12662
-30.759
3.92748
-32.3596
-12.933
-16.9901
-16.8988
17.4238
-19.773
-10.0932
-44.4456
-10.2924
-0.996102
-26.2454
-14.5777
-38.3238
12.0395
-38.6821
9.32918
-40.8941
-16.1193
-18.5219
8.58831
-16.6332
9.22437
-17.91
-34.0793
-34.9704
-17.5654
-23.1578
-23.0727
-16.1825
-23.3905
-23.0696
-14.0368
-25.06
-21.4175
-26.1822
-4.80416
4.70856
-20.3458
15.2692
-50.3893
-16.4926
-16.8509
-2.08489
-16.7079
-49.4258
-17.2772
-26.5718
-1.86774
-16.177
-12.87
-21.3837
-13.208
-9.32072
-11.4006
-42.4562
-25.1301
-25.295
-17.4193
5.9427
-24.6438
-13.4007
-24.7415
-14.6103
-15.2907
-1.27606
-0.983091
-1.19631
-53.1027
-50.6602
-13.2907
-13.7194
9.46758
-11.3657
-10.838
-13.0984
-13.7485
-15.1307
-18.4558
-18.6139
-10.976
-10.6312
-0.637991
-21.1168
-15.6511
-11.4099
-12.1921
-9.99251
15.3138
-20.5792
-65.0654
-17.1328
-17.6669
-20.6635
2.6877
-9.13412
-77.5664
-12.5233
-13.0325
11.878
12.2305
11.6689
-11.0079
-16.4658
-59.4823
-32.7293
-12.9038
1.88545
-1.52723
-60.9495
-7.98805
-43.3329
8.13549
-23.5542
-24.886
2.91952
-24.6751
-25.6654
9.87227
-9.96316
2.979
-32.6908
-14.81
-14.4226
-28.4512
-11.6784
-14.2599
-13.2168
-17.6816
-46.0763
-0.587905
-4.77153
-7.71314
-25.5952
-11.9617
-21.8606
-39.9441
-38.8604
-0.298195
-0.264738
-41.4849
-19.7249
-3.94777
-35.7325
-5.80976
8.30569
-16.1777
-16.2416
-40.8807
-12.4865
-16.7862
-53.4816
-13.9198
-28.653
-28.5983
-17.3275
5.49709
5.56587
20.4377
-17.4951
21.0264
21.2136
-9.93725
-9.98424
-16.6493
-26.2552
-11.3901
-11.2416
-7.44983
-7.29088
-11.5039
-6.46843
-14.1587
-19.8567
-26.8513
13.7985
13.9587
-12.3203
-16.9477
-16.9534
-12.509
-12.9976
-15.3694
-12.5789
-22.8888
-19.5086
-19.228
0.469822
-18.8134
0.727132
-24.2464
-19.5216
4.82004
-18.0637
-20.0854
-11.4224
-26.5557
-24.5073
-14.4919
-10.8179
-35.7804
-34.1676
-14.2352
4.96818
-13.967
-16.8543
-14.5025
-14.3329
9.29967
9.58859
-4.94472
-10.5186
5.41978
-9.90448
-10.3004
-16.887
5.20657
-10.6247
-9.74752
-10.9171
-10.5601
-59.1679
-16.4453
-24.2523
-10.1215
-11.0595
-11.6723
-27.0308
5.62938
-20.4549
-24.0661
-13.7455
-39.845
-17.1106
-17.241
-11.8778
-23.4934
-22.1465
-21.561
-29.9231
-13.5944
13.0456
-20.0561
-14.9342
-19.4309
-15.4905
-12.8398
-30.5956
-19.734
-46.3614
-18.6601
-11.6629
-16.1393
-35.4864
-37.9189
-52.2796
-87.2405
-11.2746
-84.8682
-9.94365
-11.6
-13.7654
-25.8916
-15.3011
-9.97419
-17.8965
9.89347
-37.0563
-40.1358
-21.0959
-20.5247
-25.5596
-6.71688
-11.0968
-6.91337
-19.6523
-6.12045
-20.9059
-44.2419
-10.8779
2.14943
-9.91555
1.84273
8.82735
-33.1926
-13.4487
-10.2757
-10.9258
-14.0026
-35.6161
-17.177
-24.968
-13.4071
-13.6239
-14.6452
-12.986
-12.7807
-23.8498
-30.7183
-22.0587
-15.187
-17.2124
-14.7555
-15.1092
-15.1457
-13.1908
-6.82433
1.08338
-22.8032
-12.2496
1.45175
-11.1785
5.36203
-14.6822
-11.2757
-53.3924
)
;

boundaryField
{
    frontAndBack
    {
        type            empty;
    }
    outlet
    {
        type            freestreamPressure;
        freestreamValue uniform 0;
        value           nonuniform List<scalar> 7(-5.18043e-06 -2.50887e-06 -0.000105417 -8.99849e-05 -0.000524133 -0.000513092 -4.75649e-09);
    }
    walls
    {
        type            zeroGradient;
    }
    inlet
    {
        type            freestreamPressure;
        freestreamValue uniform 0;
        value           nonuniform List<scalar> 7(-1.04202 -1.14408 -0.504575 -0.936729 -2.09227 8.53077 9.82787);
    }
    airfoil
    {
        type            zeroGradient;
    }
}


// ************************************************************************* //
