/*--------------------------------*- C++ -*----------------------------------*\
| =========                 |                                                 |
| \\      /  F ield         | OpenFOAM: The Open Source CFD Toolbox           |
|  \\    /   O peration     | Version:  2206                                  |
|   \\  /    A nd           | Website:  www.openfoam.com                      |
|    \\/     M anipulation  |                                                 |
\*---------------------------------------------------------------------------*/
FoamFile
{
    version     2.0;
    format      ascii;
    arch        "LSB;label=32;scalar=64";
    class       surfaceScalarField;
    location    "200";
    object      phi;
}
// * * * * * * * * * * * * * * * * * * * * * * * * * * * * * * * * * * * * * //

dimensions      [0 3 -1 0 0 0 0];

oriented        oriented;

internalField   nonuniform List<scalar> 
3327
(
-0.0861399
2.08595
-1.99981
1.80771
-1.89385
-0.00857271
0.00117678
0.00739592
-0.00199088
-0.00658183
-0.0214517
0.00447944
0.0169723
-0.0167803
-0.0046714
-0.334891
0.438832
-0.103941
0.110695
-0.445586
0.00476981
-0.00476981
0.0176662
-0.00369186
-0.0139743
0.0176662
0.100345
-0.107205
0.00685935
-0.00275941
0.0181995
-0.0154401
0.0698866
0.0433652
-0.113252
0.0396465
0.0606988
0.059396
-0.251843
0.192447
0.218414
-0.159018
0.00117002
0.0230103
-0.0241803
-1.52567
-0.513613
2.03929
-0.00853614
0.00800952
0.000526623
-0.013463
0.0179499
-0.00448688
0.00597262
-0.0194356
0.366999
-2.40725
2.04025
-1.85876
2.22575
0.208489
-2.19316
1.98467
-2.16483
2.37331
0.384855
-0.665001
0.280146
-0.0421992
0.0186207
0.0235785
0.367152
0.0177034
-0.00457861
0.000267021
0.00431159
-0.00457861
0.21357
0.177271
-0.390841
-0.122359
0.335929
1.33348
-2.07837
0.744882
-0.707652
2.04114
0.207171
0.289706
-0.496877
-0.335599
0.54277
-0.785342
-0.19181
0.977152
0.560774
-1.34612
-1.73266
1.9217
-0.189048
-1.73265
-0.044246
0.114133
0.0118595
-0.0114682
-0.000391326
-0.0013842
0.0132437
-0.000987643
0.0379405
-0.0369528
0.0256821
-0.0266698
-0.0261542
0.010864
0.0152902
0.0141926
0.00578878
-0.0199814
-0.00464653
0.0188391
0.925794
-0.849431
-0.0763628
-0.00864427
-0.00996861
0.0186129
1.44808
-0.522283
-0.0139764
0.0139763
0.0260403
-0.00529665
-0.0207436
0.10781
0.0368815
-0.144692
-0.0170995
0.0128629
0.0042366
0.0194786
-0.0183086
0.00589102
0.0412948
-0.0471858
-0.00275943
0.139813
-0.0320028
-0.0192746
0.0251656
-0.109296
0.114899
-0.00560214
-0.00527444
-0.0118251
0.0111832
-0.0485711
0.037388
0.00360664
-0.00360665
-0.124362
2.39114
-2.26678
-2.4093
2.28493
0.0579876
-0.0468044
0.00245024
-0.0192306
0.0123296
-0.00069721
-0.0116324
0.0304649
-0.00903362
-0.0214313
-0.00770807
0.0197008
-0.0119927
-0.0631825
-0.0704275
0.13361
1.80771
0.0156601
-0.238412
0.222751
-0.0183352
0.0106272
-2.09879
0.355834
1.74296
-2.85577
0.756979
-0.195381
-0.669285
0.864666
0.976084
-1.17147
-0.411015
0.746867
-0.335852
0.0518473
-0.462862
0.0188164
0.0072239
0.0217055
-0.00200479
0.00449783
-0.00449783
0.015394
0.00631158
0.00531467
0.00818364
-0.0134983
0.0127132
0.0204842
-0.0331974
0.00509791
-0.0142144
0.0091165
-0.0126909
0.0177888
-0.0754451
0.0311991
-0.0170552
0.0139743
0.00308101
0.0315296
-0.751138
-0.369964
1.1211
-0.683797
-0.0673405
-0.0849703
0.618043
-0.533073
0.120742
-0.183925
-0.00378102
-0.0072222
0.0110032
1.24458
-1.32955
-0.00790634
0.00412532
-0.178166
0.00469294
0.173473
-0.0574237
0.596183
1.3829
-1.97908
0.0180106
-0.0107949
-0.00721568
-0.00373372
-0.00112683
0.00486056
-0.0170552
2.04601
-1.44983
-0.22141
-1.14184
1.36325
0.0104972
-0.0104269
-7.02424e-05
0.0104972
0.891843
-1.11325
-0.225766
-0.0807866
0.306553
0.141386
-0.150015
-0.0809197
0.230934
0.145062
0.0927466
-0.237809
-0.0170552
-0.0392238
0.0574232
-0.11195
1.57247
-1.46052
0.00948493
-0.00392102
-0.00556391
0.234812
-0.0897496
-0.09819
-0.0518247
0.0152191
-0.00276612
-0.0124529
0.252929
0.382376
-0.635305
-0.205231
0.45816
-0.00373372
-0.0398618
0.000637991
-0.0718837
-0.00356139
0.0114657
0.00375337
-0.000186476
0.0207375
-0.020551
-0.0036565
0.0200103
-0.0163538
-0.00243129
0.0302331
-0.0278019
0.0104269
-0.00879178
-0.00163513
0.158637
-0.263803
0.105166
0.0324392
-0.0348705
0.0148089
-0.00599209
-0.00881679
-1.08012
0.710158
-0.25488
-0.825242
0.0109983
-0.0111847
0.0137855
0.0182115
-0.0319971
0.0174843
-0.0367589
-0.102971
0.0370585
0.0659127
0.0875369
-0.0737514
0.0307527
-0.0338508
0.00309811
0.0103735
0.0309213
0.00483449
-0.00365771
-0.0327264
0.044687
-0.0119606
-1.79003
-1.06574
0.785882
0.200171
-0.149037
-0.0511345
0.121417
1.12317
-0.0532454
0.0636189
0.178656
-0.131336
-0.0473194
0.238686
-0.0600301
-0.0134993
0.00656245
0.00693684
0.00119458
0.015765
-0.0169596
-0.000523501
0.00751095
-0.00698745
-0.0106432
0.0131171
-0.0024739
-0.0254889
-0.00204431
0.0275332
0.00279844
-0.00886432
0.00606588
-0.019511
-0.00911283
0.0286238
2.08252
-0.227764
-1.85475
-0.0339887
0.0144777
0.0118463
0.0138655
-0.0257118
-0.312713
0.38462
-0.0719075
0.0261119
-0.00042977
-0.279209
-0.0335036
0.0106486
-0.00785017
0.159013
0.426519
-0.585532
0.0627198
-0.00684618
-0.0558736
0.00467805
-0.000323523
-0.00435453
0.00467805
-0.00765232
0.00184567
0.00580667
-0.00938783
0.0339585
0.391552
-0.42551
-0.0139764
0.0291913
0.00874917
-0.0130079
-0.00169854
-0.0068376
-0.00548505
-0.0079994
0.0134844
0.0445047
-0.0283968
-0.016108
0.0168843
-0.0174604
0.000576083
-0.0133888
0.00939209
0.0039967
0.00723319
-0.00148675
-0.0057464
-0.00498632
-0.014152
0.0191383
0.00877666
-0.013763
0.00723319
0.0168843
0.0159013
-0.00602037
-0.00988097
-0.0133888
-0.0133387
-0.0021014
0.0154401
-0.915933
0.171039
0.744893
0.122459
0.0959544
0.215831
0.00433227
-0.0177194
0.0133871
-0.0163342
0.0206665
-0.0252046
-0.0131617
0.0383663
-0.0447113
0.0195067
-0.0301984
0.0249017
-0.0231912
-0.00700717
-0.0106114
0.0224538
-0.0118424
-0.0318897
0.0212783
0.00236589
-0.00785095
-0.0116485
-0.0115427
-0.0133387
-0.0348595
0.0326184
0.00224114
0.0278388
-0.0315306
-0.0256671
-0.00919241
-0.00719323
-0.0375181
0.0177881
0.0148757
-0.0326638
-0.840424
0.667911
0.172514
-0.907076
0.066652
-0.00765231
0.0027806
0.018721
-0.0215016
0.00274021
0.0142915
-0.0170317
-0.0349967
0.00950775
-0.0064851
0.0104385
-0.00395336
-0.004244
-0.00332336
-0.0270761
0.0303995
0.00580668
-0.00580667
-0.00765232
-0.0759513
0.0196584
0.0562928
0.00275943
-0.00878681
0.00602733
-0.0105662
0.0133064
-0.0186844
0.00494733
0.0137371
0.000868852
-0.00431159
0.00344274
0.00112382
-0.0117671
-0.00791756
-0.000161268
0.00807883
-0.000540921
0.00793684
0.0978882
0.257422
-0.35531
0.00335099
-0.0112686
0.00879178
-0.00879178
0.000215687
0.00651542
-0.00673111
0.0144461
-0.0260947
0.0349717
-0.0205255
0.0258052
-0.0514722
0.00551669
-0.00326786
-0.00224884
-0.131699
0.00922065
0.122478
0.291596
-0.193708
0.139065
-0.0325708
-0.106494
-0.0194531
0.0152091
0.00551669
0.132578
-0.0250304
-0.0903382
-0.0413607
-0.00862553
0.00846426
-0.0129174
0.00429187
-0.0289804
-0.0555174
0.0844978
-0.0961702
-0.10408
0.20025
1.73231
0.333044
-2.06535
-0.000904333
-0.00414915
0.00505349
0.00420173
0.000509444
-0.00471117
0.18243
0.00420173
-0.0114503
0.0434187
-0.0319684
-0.00878681
-0.0775999
0.00164867
-0.131381
0.0410426
0.0116171
-0.0151622
0.00354513
0.0169318
-0.0597352
-0.0178647
-0.0144192
0.00371723
0.010702
0.00604501
-0.00367911
0.00744156
-0.00744152
-0.0181318
0.0312549
-0.0131231
0.0488391
0.133591
-0.70477
-0.247789
0.952559
0.00232654
-0.011525
0.0091985
-1.08858
0.383813
-0.0974067
0.0376715
0.0445361
-0.0428875
0.00792304
-0.0611685
0.0185435
-0.0173489
-0.0353201
0.0281269
-0.0317418
0.0282968
0.00344502
-0.00469807
0.00702462
0.0310702
-0.0206025
-0.0104677
-0.0185616
-0.0276264
0.046188
-0.0138983
0.0126014
0.00129697
0.0321639
-0.0507255
0.00807585
-0.0163177
0.0082418
0.00604501
-0.0154259
-0.00960445
0.0380591
-0.133624
0.0955645
0.0348924
0.0230951
-0.0137552
0.00304225
0.010713
-0.0157836
0.00202832
0.0199771
-0.0193365
-0.000640606
0.00582512
0.154301
0.0437507
-0.198052
0.0414201
-0.0065277
-0.00682843
0.00531821
0.00151023
-0.00397051
-0.000608107
0.0114521
-0.000954953
0.0114521
-0.00293735
-0.00853083
-0.0273367
-0.0756347
0.0092678
-0.0122052
0.0012238
-0.00805223
-0.0159232
0.00748403
0.00843913
-0.00251179
-0.0134114
-0.348027
-0.33577
-0.602907
0.421538
-0.488878
-0.667045
-0.0378203
0.00250022
0.045005
-0.000500248
-0.0210669
0.0381263
-0.0170594
0.0540152
0.180797
-1.30995
0.168111
0.28794
-0.233925
0.0940998
-0.0560407
0.043108
-0.0784331
0.0353251
0.0186493
-0.0113601
-0.0072892
-0.00795606
0.0175765
-0.00962044
-0.0296617
0.0527568
0.0547433
-1.36469
-0.0318283
8.64667e-05
-0.00459694
0.0162207
-0.0116237
0.00730506
0.0234824
-0.0307875
2.03899
-1.87088
0.0215966
-0.00490685
0.0144968
-0.00958994
0.00874026
-0.0136471
0.00792697
-0.0156208
0.00769383
-0.00878464
0.0167116
0.0498277
-0.0794894
-0.00441273
0.00441273
-0.0366207
-0.0138569
0.0504776
0.0106932
0.0158301
0.00959936
-0.0254295
-0.0123392
-0.0111377
0.0234769
-0.766869
1.08624
-0.31937
-1.55661
0.789741
-0.019841
0.00750179
-0.006234
0.019097
-0.112404
0.0596055
0.052799
0.0300276
-0.00654519
0.29631
-0.262351
-0.131525
0.0333354
-0.00486977
-0.00215672
0.0070265
-0.00486977
0.0805971
-0.0374892
0.00896067
-0.0034341
0.00364979
-0.0148637
0.0249817
-0.010118
-0.0034341
0.0122746
5.50052e-05
-0.0120039
0.014359
-0.00235511
-0.0131545
0.0135049
-0.00035046
-0.00496677
0.0330936
0.454947
-0.940011
-0.676009
1.61602
-0.0122009
0.0158811
-0.00368016
0.0418964
-0.0179348
0.00171369
0.0162212
-0.00441787
-0.013517
-0.0181367
0.0198504
-0.01898
0.000843345
-0.000969184
-0.0112317
0.0153211
-0.00131631
-0.0140047
0.00216659
0.536409
-0.576065
0.0396556
0.00972957
-0.034327
0.00738272
0.0269442
0.0111831
0.00109148
0.0165117
-0.0169071
0.000395405
0.0136603
-0.0146295
0.0136603
-0.013104
0.032102
-0.0189979
0.581721
-0.0453116
0.00779567
0.0224378
-0.0302334
0.29789
-0.64999
0.3521
0.623763
-0.0420418
0.0115253
-0.0134278
0.00190245
0.00406085
0.0124509
0.00300048
-0.0199076
0.0133888
0.000587579
0.03658
0.202106
1.94858
-1.34153
-0.607046
0.0931494
1.60428
-1.69743
1.32619
-1.23304
-0.00516906
0.0237898
1.17594
-1.18582
0.0098823
0.014226
-0.0393572
0.0251313
0.0572831
-0.0430571
0.0118628
0.00988019
-0.021743
0.0208626
-0.00899983
0.00199488
0.0157932
-0.0376698
-0.075582
-0.0144785
0.0222742
0.0231912
0.0089108
-0.0328819
0.0324687
0.000413262
0.0180221
0.0345447
-0.0121069
-0.0270055
0.030006
-0.0113865
0.0104315
-0.0110508
0.0110508
-0.00148044
-0.0145023
0.0159827
-0.023237
0.0217566
-0.0242506
0.00974836
0.0142295
-0.0142295
-0.017582
-0.00666861
-0.0864459
0.00801273
-0.00188166
0.0119966
-0.0101149
0.00840018
-0.0102818
-0.0109678
0.00897689
0.019681
-0.016713
0.00675998
0.00995298
-0.100891
-0.0327322
-0.00464498
0.0201849
-0.0155399
0.0109197
-0.0155647
1.03083
0.0129887
0.00844079
-0.0214295
0.026088
-0.0130994
0.000308261
0.00687579
-0.00718405
-0.015942
-0.00697376
0.0229158
0.00485249
-0.0151198
0.0102673
0.0764279
-0.210395
0.133967
0.556843
0.00317866
-2.38701
-0.0202363
0.845211
1.19504
-0.292673
-1.82579
2.11846
0.00813504
-0.024077
0.0147958
-0.0318104
0.0170146
-1.83938
1.5467
0.110213
-0.012221
-0.0979925
-0.129872
-0.0170939
0.44481
-0.267539
1.47396
-1.5311
0.0571378
0.533951
0.218032
-1.74913
0.00543296
-0.0193313
0.0275955
0.0039341
-0.184903
0.235696
-0.0507932
-2.57263
1.86498
0.406295
1.63484
-0.0132514
0.273534
-0.00557961
-0.267954
0.0059982
-0.0266007
-0.000989398
0.00625719
-0.0052678
0.003417
-0.00310874
-0.0463064
-0.0401394
0.00266039
-0.00364979
0.0204753
-0.0144771
-0.199709
0.153235
0.0464737
0.0239679
-0.021973
0.0396535
1.26226
-1.30192
0.00999617
0.0139717
-0.00269798
0.018463
0.0117983
-0.0121035
0.000305202
-0.467682
-1.37169
1.4474
-1.91509
2.19792
-0.750521
-0.00772321
0.00618855
-0.000662649
-0.0055259
-0.413313
-0.453728
0.867041
-0.0149504
-0.0116503
-0.00879692
0.0185453
0.00495814
-0.00777797
0.00281984
1.46734
-1.69187
0.224533
1.1788
0.269273
0.800615
-1.21393
-0.0102126
1.95879
0.00618855
0.00200638
-0.0210043
-1.4889
1.47868
-0.345648
-0.0302851
0.375933
-0.476997
0.766702
-0.0302
-0.315448
-0.306918
0.276633
-0.270338
0.011539
-0.011539
0.00582699
2.78304
-2.28493
-0.498111
-1.91899
1.91899
0.864056
0.894429
0.273304
-1.61484
-0.0243656
-0.0374453
0.0618108
0.186334
-0.0186894
0.0140429
-0.890287
0.244401
0.645886
-0.117736
-0.772552
-0.983557
1.22796
-1.09551
1.44924
-0.0163048
0.013151
0.00315373
-0.852321
-1.53469
0.00725707
0.0956451
-0.0135126
0.0218145
-0.00830182
-0.00890234
0.0598415
-0.0509391
-1.08764
0.864284
0.223358
-0.11049
0.0199719
-0.0169297
0.0456237
-0.054526
0.0423358
-0.0118907
-0.030445
0.733099
1.55031
-2.28341
1.70878
0.489142
2.44188
0.307262
-0.230834
-0.0891688
0.377109
1.60432
-0.360262
-1.24405
1.28495
0.146845
1.1381
-1.12316
0.273732
-1.00128
0.924921
0.00960938
0.0621261
-0.0618577
-0.000268423
0.0153217
0.0224252
-0.0887933
0.0663681
-0.0394325
0.71442
-1.39043
-1.02527
1.73969
-0.0647947
-0.600206
-0.359977
0.270808
2.03585
-0.179305
-0.180672
0.0566645
0.816215
-0.87288
0.944494
-0.887829
2.03088
0.00483449
-0.171759
-0.0279501
-0.177364
0.0056051
1.01553
-0.0710349
-0.0756097
1.09114
-1.0967
1.02109
-0.910744
-0.418809
-0.280483
0.0245489
0.0132242
-0.0377731
0.0341583
0.0776725
0.0276232
-0.105296
0.0197133
0.0326386
-0.0523518
0.114554
0.0341849
-0.00588809
-0.135217
0.0238373
0.11138
-2.26671
1.02266
-1.21606
-0.81475
2.03081
0.110129
-2.04868
1.05565
-1.85366
0.798006
-0.611805
1.66746
-1.4815
0.869695
1.25483
0.317644
-0.226674
1.53601
0.197074
-1.73309
-2.00619
-0.0424912
0.0894836
-0.080263
-0.0127935
-0.00198616
0.0147796
-0.011655
-0.00113852
-0.0133822
0.0127769
0.000605246
-0.000216771
-0.0114382
-0.0092533
0.00903653
-0.015894
-1.84885
-0.288796
2.13765
-2.66134
0.995505
1.66583
0.734041
-2.58289
-1.92729
-1.12103
1.98509
-0.0597379
0.336371
0.0221634
-0.00344244
0.318427
1.31497
-1.6334
-0.0135282
0.0159784
-0.247754
0.03736
0.57043
1.97474
-2.54517
-0.00689901
-1.9217
1.96649
-0.0447839
1.38294
-1.98998
0.00271036
0.0255105
-1.96649
2.52333
-0.0962004
-2.08027
2.04615
0.0341216
-2.08027
0.00271989
1.87101
-1.45647
-0.414542
1.87101
0.0167632
-0.0140433
-0.00210054
0.789534
-1.66699
2.45653
-1.66699
-1.75513
1.46633
-1.75513
0.42794
-0.45814
0.454821
-0.0268803
0.00360857
-0.0205242
0.0169156
2.15734
-1.58691
2.76584
0.00959492
0.0014559
2.16004
-0.609727
1.1146
1.04544
-0.0420561
0.00143857
0.00438842
0.0151799
-0.0115713
0.00488131
-0.00344274
0.00959493
-0.0170628
0.0143648
2.2415
-2.26174
0.163134
0.780935
1.78914
0.460848
1.07146
-1.5323
-1.55481
-0.230282
-0.0174722
1.95573
-0.884271
-0.125535
2.21149
-0.477277
-0.0373464
0.0230935
0.014253
0.136989
-2.30181
-1.82772
1.96471
1.59009
0.0626698
-0.0824221
0.0197524
-0.0176331
-0.271234
0.0735514
0.197682
-2.04601
-0.0342642
0.362423
-0.1702
-0.192222
-0.0213143
0.00721688
0.0140975
0.69965
-2.55841
1.72068
0.505074
0.0803974
-0.0177276
0.00670147
0.0274834
-0.0090637
-0.00613957
0.0152033
1.89385
-2.27908
0.385234
0.0435777
-0.0166918
-0.000768532
0.00537818
-0.0165933
0.0112151
0.100071
0.594732
-0.621613
-0.123139
-0.148095
0.0219885
2.33057
-0.634811
-0.214959
0.849769
0.0495133
-0.00426494
-0.0452484
2.44261
2.21196
0.230649
-0.0268762
-0.625554
-0.00925642
1.55157
0.0385249
0.00336549
-0.0715371
0.0681716
0.0202754
-0.000796727
1.10926
-0.548488
1.95786
0.0208209
-0.0241442
0.0189694
-0.0366025
0.998611
-0.104182
0.00377345
0.00844676
-0.0122202
0.0488638
-0.0191018
-0.029762
-0.884244
-1.61222
2.41023
-1.61222
-1.152
0.698273
-0.104603
0.594602
-0.404367
-0.190235
0.00368805
0.00696056
0.258832
-0.230046
-0.00922935
0.516821
0.0187763
-0.0319912
0.0132149
0.00105466
-0.00473377
0.00367911
0.0142758
-0.0105024
0.0169671
0.0710066
-0.0879738
0.0156859
-0.0156859
0.021317
-0.00563116
0.0146295
0.00668754
0.013293
-0.013293
-0.00723319
-0.00982195
0.764321
1.67756
1.11924
1.01841
-1.41515
-1.41515
-1.47986
-1.06531
0.023222
-0.00224123
-0.0209808
-0.0111666
0.0299429
-1.21779
-0.369603
1.58739
-2.04615
1.43643
0.0120555
-0.0159362
-0.00459659
0.105254
-0.100658
-0.0222248
-0.0085627
-0.0142345
-0.00165942
0.020201
0.0279671
-0.0481681
-0.0124415
0.0196547
-0.00721326
0.00285841
-0.0152999
0.039751
-0.01636
0.0148483
0.00151173
0.016002
-0.0131436
-1.04138
-0.691711
-0.0122395
0.00424014
0.0175487
0.00622342
0.0134313
-0.00124127
0.0244237
-0.0206856
-0.0037381
-1.91595
1.33329
0.582661
0.00331415
-0.177315
-1.73864
-1.66378
2.44472
-0.0614104
0.03612
0.0252904
0.00768107
-0.0147216
0.0070405
0.011359
-0.00367789
-0.0184747
-0.0114691
0.0299437
0.00870596
-0.0271806
0.910962
0.0251478
0.344463
1.61126
-1.48133
-0.0665031
0.0875733
-0.0210702
-0.0412095
0.0168489
0.0152627
-0.0321116
-0.0066616
0.00219885
-0.0937271
-0.856954
0.950681
0.0737358
-1.00663
0.912901
0.122953
-0.0605039
-0.0624488
-0.0135862
0.0135862
-0.00399124
-0.0102499
-0.000464581
0.0107145
-0.463675
-0.750253
-1.69672
0.00419999
-0.00419999
-1.04195
-0.654766
0.0956159
-0.0666086
0.00610466
0.0263329
-0.0131087
0.0218784
0.00445443
0.0101949
-0.0108575
0.044816
-0.100198
0.205767
1.92645
-0.0169421
0.0236436
-0.0103709
0.0165943
0.0139348
0.000296489
0.00875516
-0.00905165
-2.65375
1.80143
-1.86787
-0.00636091
-0.0310844
0.0360836
0.703307
0.0123832
0.0131497
-0.025533
-0.0164134
-0.00956338
0.0259767
0.0222062
-0.0262086
0.00400242
0.0265693
-0.0329302
0.00232023
-0.0121671
0.00984692
-0.00408425
-0.000914117
0.00499837
-1.95999
0.918034
-0.00236248
-0.0241945
0.0454669
-0.0212724
-0.0403915
0.016197
-0.0208848
0.0342617
0.334362
-0.192976
-1.76709
1.64156
-1.88524
0.118146
1.57052
-1.23988
-0.330638
1.05691
0.0237136
0.0740773
-0.0977909
-0.00408425
-1.66699
1.00527
0.661715
-0.488186
-0.0197038
0.0220241
0.00850343
-0.0249168
0.32495
1.34251
-0.00119625
-0.00488433
0.00608056
0.0274258
-0.00543728
0.00488434
-0.00458785
-1.30643
1.63138
-0.00574638
0.0057464
-1.79462
0.0380686
0.07683
0.0632839
-0.0252152
-0.0176974
0.0513931
-0.0353493
-0.00842515
0.00710885
0.242234
-0.123874
-0.11836
0.0142281
0.106948
0.347999
0.00268643
-0.0380358
0.00842515
-0.000332243
-0.00809289
-0.0207125
0.300099
-1.18793
-0.431208
0.538155
-0.0135282
0.152485
-0.00679462
-0.012436
-0.0183333
0.000928721
0.0174046
0.0219198
-0.00443553
0.0135928
-0.0167125
0.00311976
0.0107567
-0.0144923
0.00373557
0.0105738
0.000182913
0.0105053
0.00430354
-0.00398695
0.0491155
-0.0642943
0.0151787
0.0419632
0.00940803
0.0231524
-0.0325604
0.333877
0.0112561
-0.0132593
0.00200317
-0.0017215
-2.4093
-0.873312
1.17076
-0.297446
-0.28817
-0.36182
-0.821243
-0.180785
0.460931
-0.0193632
0.018326
0.00103724
-2.30927
0.0104836
0.277083
-0.457868
-1.82772
0.00488433
-0.00705947
0.0406752
-0.0336157
-0.0782276
0.00378275
0.0416841
-0.0814406
0.00736913
-0.0340389
0.160184
-0.339489
-0.0248619
0.0225921
0.00226984
-0.00955667
-0.0415597
0.0558127
0.05887
0.0287033
0.508183
-0.0622797
-0.00754099
-0.0406271
0.00358639
0.0155519
-0.0146815
0.0182679
-0.0551387
0.079173
-0.0240343
-0.00892115
0.168543
-0.362251
-0.0640599
0.327556
-1.67962
0.558587
-1.77929
-0.824291
0.899357
-0.0750662
0.421416
0.191049
-0.612465
-2.27908
0.0129898
-0.011493
-0.00149676
1.96471
-0.440478
-0.408069
-2.81756
2.40949
0.20958
2.15734
0.0178199
-0.0377263
0.0199064
0.0332629
-0.0154431
-0.0836667
0.00124457
-0.00132352
0.0143789
-0.0130554
0.118909
0.30761
0.0168814
-0.0183681
-0.248938
0.367847
0.262112
-0.273684
0.0115715
0.0372404
0.0382972
-0.0755377
-0.0578522
-1.45647
1.1804
1.58691
1.43643
1.46633
0.0100286
0.00549726
-0.0155258
0.0133912
-0.0219539
-0.918191
-0.00364047
-0.0315478
-0.0061499
0.0376977
0.00019029
0.0412298
-0.440396
-0.477795
0.00404965
-0.0164851
0.0124354
-0.00600764
0.0160362
-0.0111126
-0.0197617
0.0197617
-0.018833
-0.0157258
0.0117389
-0.0102286
-0.0143185
0.144668
-0.0571313
1.33114
-0.0688744
0.267731
-1.152
-0.0472852
0.0337335
0.0135517
1.38568
-1.11795
0.00184341
-0.0175246
0.0156812
0.0120799
-0.0102365
0.0212981
-0.0104342
-0.0411176
-0.00616764
-0.0121572
0.0163938
0.0200757
-0.0142869
0.00136277
0.0199354
0.00993304
-0.009933
0.00863875
0.0114369
-0.104821
-0.00807422
-0.0289774
0.0209032
0.236096
0.613674
0.008167
-0.0192796
0.0187007
0.00255606
-0.0212567
0.0173454
-0.0173454
0.448232
-0.373011
0.00165954
0.00268293
0.0134003
-0.0301478
0.0167475
-0.000576083
-0.0131276
0.0768869
-0.0468396
-0.00406627
0.00471514
-0.000648868
-0.0114841
0.00628956
0.00430816
0.0154535
-0.021138
0.00801039
0.0127658
0.00628955
-0.0214784
0.0686033
-0.0471249
0.517088
-0.470899
-0.0461896
-0.0414608
-0.101741
0.657512
0.017428
-0.00857667
-0.00885131
-0.00582083
-0.0112881
0.0171089
-0.181727
-0.884043
0.733818
0.150224
0.0116071
0.0213168
-0.998771
0.091695
0.0271535
-0.0648233
0.00769185
-0.0168843
-0.00769185
0.00769185
-0.0155018
0.00421375
0.0291584
-0.00506205
-0.0240963
0.0196155
-0.0607331
-0.0176465
-0.00163307
0.00863286
-0.0120607
0.0686667
-0.056606
-0.0130076
-0.0140685
0.0169353
-0.0230252
0.0053787
0.00256758
-0.00841478
0.00584721
0.0759083
-0.00405558
-0.0129114
0.016967
-1.1337
-0.856276
-0.0384675
0.00691972
-0.0270808
-0.2531
0.0330975
0.220002
-0.00903195
0.00702716
-0.00975843
0.00506036
-0.00392881
-0.00582962
0.00982412
-0.00959371
-0.000230406
0.0867018
0.905582
-0.00995296
-0.011185
0.0284011
-0.224698
-0.0867134
0.140245
-0.0535313
0.0483705
0.0141815
0.018437
-0.860831
0.643094
0.217737
0.0146425
-0.0104024
0.0148595
-0.000217022
-0.00950007
-0.851331
-0.00953946
0.00953946
-0.100766
0.608207
-0.507441
0.661415
-0.762181
0.00136021
0.728967
-0.0675514
0.0211152
-0.0204814
-0.000633851
0.28857
-0.251152
0.21376
0.0373923
0.133468
-0.0824255
0.00741143
-0.00773495
-0.492261
0.411474
-0.575811
1.91832
1.83442
0.289426
1.83442
0.594617
-0.0147205
0.0140233
-0.00826922
-0.00645125
0.0070201
-0.00792236
0.000258264
0.0076641
-0.00244794
0.0160407
-0.379029
-0.0141516
0.393181
0.129153
0.011826
-0.0142739
-0.108266
0.0494704
-0.136184
0.00656129
0.00102806
-0.00758935
-0.0185296
-0.00953329
-0.00995186
0.0194851
0.0460305
-0.124521
-0.00804321
0.0138441
-0.00580088
1.29657
0.334809
-0.0216552
-0.00418668
-0.00429622
0.00190299
-0.00982535
-0.163731
-0.00193583
0.0510514
0.0068279
0.0034999
-0.0103278
0.0112826
-0.00445466
-0.0119751
-0.00636011
0.0437494
1.25282
-0.268552
-0.107674
-0.160878
0.0421131
-0.0574418
0.0153287
0.123206
-0.116431
-0.0210388
0.019192
0.0624286
0.0111127
-0.0735413
-0.0192755
-0.0117196
0.0136226
0.0129633
-0.00420816
-0.00370209
0.035866
-0.327918
0.0178433
-0.0023898
-0.0154535
-0.481962
-0.34328
0.179927
2.15065
-0.496114
2.33727
2.33727
0.556436
0.464653
-0.7605
1.31694
-0.0720236
0.0178433
0.0441834
1.27079
-0.0690104
0.022704
0.00450118
-0.0334313
-0.0355791
0.00582141
-0.011961
-0.00105523
0.0134113
-0.012356
0.0106837
0.0963409
-0.0957826
-0.00055827
0.0384891
0.0578518
-0.780099
-0.405722
0.556375
1.05964
-0.07895
0.0205552
-0.00547718
-0.015078
-0.149727
0.0183909
-0.18246
-0.0925941
-0.348735
0.0332865
0.0100905
0.0104647
-0.226146
-0.122589
-0.109783
-0.174588
0.284371
-0.0153669
-0.881731
0.0956023
0.786129
0.0204579
-0.0159784
-0.872848
-0.00888373
-0.16621
-0.00971416
0.00852442
0.00118974
0.0103958
0.010062
0.0707325
-0.058246
-0.332595
-0.0075711
-0.00214305
-0.334343
-0.0904522
0.424795
0.0254134
-0.0181895
-0.00821752
0.0103958
-0.180563
0.025593
-0.528358
-0.643108
-0.00510505
-0.0122329
0.0173379
-0.146963
0.200726
-0.0537638
0.00241243
-0.0146453
0.0191262
-0.0211705
0.0243451
-0.219466
0.0725036
0.00582141
-0.0183497
0.0252458
-0.00689614
0.408574
0.00153191
0.00736638
-0.00889829
-1.59251
1.06415
0.0130672
-0.0115353
0.113955
-0.450574
0.0027826
0.0102846
0.0490437
-0.0475927
-0.00145099
0.0154422
0.0041166
-0.0195588
0.000648987
0.0147932
0.0170838
-0.00129059
0.0849227
-0.0868585
0.0793205
-0.0109534
0.00136122
0.00959217
-0.0155107
0.0516941
-0.0650093
-1.08699
-0.0133215
0.0129892
-1.14074
-1.67682
1.30398
-1.59731
-0.00106638
0.00809289
-0.0070265
-0.00475504
0.00511646
-0.000361411
0.0201313
-0.0104589
-0.00286254
0.015055
-0.0215964
0.00654135
-0.0307075
0.00226273
0.0149845
-0.0127218
-0.000591782
-0.0136226
-0.0115452
1.17481
-0.0172791
-0.0186633
-0.122605
-0.317873
0.0563
-0.0141869
0.394483
-1.00755
0.485267
0.00937074
1.23858
0.0495968
-1.28818
0.0883701
-1.96877
1.53868
0.00531792
0.0175978
-0.00475504
-0.0202609
0.0114096
-0.0290066
-0.948516
-0.00409221
2.49245
-0.033563
-0.0043323
0.0378953
0.0653161
0.0532554
-0.00419724
-0.0443739
-0.0411501
0.00106288
0.0124421
-0.0294609
0.00173441
0.0277264
0.00861988
0.0404239
0.322221
0.0395966
-0.022776
-0.0168207
-0.135919
-1.46765
0.723873
-1.50397
-0.0039705
0.0403903
-0.0125515
0.00968272
-0.00928011
0.0189629
0.91523
-0.793814
0.54529
-1.237
-0.00548354
-0.00754806
0.0130316
0.00750621
0.0294598
0.0101368
0.000776546
0.0160855
-0.015309
1.09526
0.0754972
0.877365
-0.0122257
0.063277
0.689539
-0.0173499
0.0259698
-0.044676
-0.00099033
-0.0153144
0.023325
0.00613486
0.0332886
-0.0263689
-0.0276582
0.957758
0.0138645
0.0138645
0.0284496
-0.0328354
0.0100594
0.0139942
-0.00923667
0.0105969
-0.00248602
0.0143737
-0.0118877
0.00424778
-0.305382
-0.578862
-0.0377636
0.0154988
-0.0111163
0.0594868
-0.0261593
-0.0821063
-0.0333275
0.0139415
-0.00252155
0.016463
-0.00583014
-0.00800948
0.0138396
-0.0170517
0.0145301
0.00179757
0.0121966
0.00298014
-0.0203301
0.0323025
-0.0018454
0.0158687
1.53277
0.250399
-2.25021
-2.24929
0.0172394
-0.0105518
0.00604248
-0.0163308
0.00928068
0.00705014
0.0474031
0.00939209
-2.99981
-0.930936
-0.0637722
-0.0261008
0.00816075
0.0218452
2.09136
0.0206371
0.00878681
0.00552882
0.04568
0.0897246
-0.0436941
0.256551
0.911026
-0.866843
-0.0196166
0.022303
-0.0154401
0.00191443
-0.00839953
0.00575839
-0.00384395
0.0100339
0.00150516
0.0100339
0.718902
0.0220371
-0.01478
0.00498544
0.241107
-0.834073
0.673542
0.160531
-0.0100797
0.0141963
0.0337846
-0.0413255
0.00167296
-0.147465
-0.843573
-0.127198
0.0653999
0.0617983
-0.213189
0.0142334
0.0331696
-0.00954421
-0.0097871
-0.0139621
-0.292128
0.385251
-0.093123
0.0168114
-0.0125354
0.00117181
-0.293299
-0.0190739
0.00615678
0.0129171
-0.00109803
0.0128964
-0.010362
-0.00871196
-0.011961
-0.01146
-0.0917902
1.15587
-1.06408
-1.16155
1.06976
-0.0536467
0.0879703
-0.235436
0.579017
-0.948621
-1.27844
-0.0234783
0.00936057
1.26856
0.022105
-0.0127445
-0.00181728
0.0155328
-0.0137155
-0.0206048
0.0187875
0.0247918
-0.023631
-0.00116082
-0.00993304
-0.00628955
0.0093408
0.00248517
-0.0272576
0.317581
0.0163474
0.00844442
-0.0160769
-0.00512367
0.0212005
0.00126128
-0.0173382
0.0262942
-0.0110851
0.0541245
-0.0203909
-4.48098e-05
-0.0137182
-0.0159106
0.00838362
0.00752693
0.0309007
-0.0399343
0.00686295
0.0472615
1.84994
1.83436
-1.57781
-0.654482
0.0124709
-0.0114337
0.00608056
0.0499381
0.00838618
-0.0176662
0.0282038
-0.00269333
0.00818383
0.00785691
0.00341701
-0.399962
0.209726
1.89954
0.0305262
0.658654
0.00972171
0.00412237
-0.00360665
0.00914309
-0.0206272
2.36249
-0.151
1.70772
0.0151563
-0.00371936
0.00743482
-0.00654504
0.0162668
-0.00490071
0.018312
0.121351
-0.133572
0.00871011
-0.0028482
-0.00586191
-3.67772e-05
0.00874689
-0.00969703
0.00489805
0.00479898
0.00857773
-0.0105639
-0.0226518
0.0138549
-0.00975547
-0.00118252
-0.00655243
0.0041808
0.00292806
-0.00710885
-0.130352
0.0118978
-0.00783698
-0.28908
-0.00517122
0.0184844
-0.00518555
0.0232077
0.00486977
0.00702807
1.96207
-0.00670321
-0.00679629
-0.0643296
-0.697851
0.413835
1.33187
0.581615
-0.570385
0.0165788
-0.0182382
0.234393
-0.501932
-1.65671
-0.0102869
-1.65671
0.586493
-0.00194295
-0.0115852
0.00406627
0.00145042
-0.183883
1.70011
-1.68454
0.300541
-0.00440195
0.00775295
-0.00436495
0.00558874
0.0104626
-0.00710953
0.00619541
-0.00803756
0.0137516
-0.000165466
-0.0115852
-0.35613
-1.27727
-1.3814
-0.0198417
0.0179963
0.00846556
0.0137516
-0.00508134
-0.014638
-0.00326786
-0.21778
0.310527
0.00838619
-0.00419179
-0.014544
0.0138126
0.000731386
-0.00798156
0.028562
-0.0476639
-0.00352787
0.0534659
0.00232548
0.0147373
0.00260061
0.0243021
0.00261532
0.0094911
0.00702715
-0.00702716
0.0443277
0.408629
-0.499081
-0.120037
0.0391175
0.0100022
-0.00192333
-0.000944687
0.0822862
-0.200646
-0.155522
-0.0133387
-0.102858
-0.00222048
0.00753869
0.1723
0.0100029
-0.000632145
0.00731939
-0.00542669
0.20966
0.0115075
-0.0357854
0.444414
-0.543226
0.0851386
0.00417642
-0.107863
0.0398958
0.0679673
0.00787582
0.0103351
-0.0187025
0.00338808
-0.00436494
-0.0188885
0.0207464
-0.00637956
-0.0225979
-0.0138168
-0.00668967
0.00523293
0.00145674
0.00204388
-0.0611084
0.0197432
-0.00929493
0.0155489
-0.0149437
-0.0014248
0.0109804
0.607556
-0.698063
0.0905071
-0.031899
1.69055
0.268237
-0.00551073
-0.00117894
-0.0154663
0.00822991
0.00723636
-0.0155744
0.0793957
0.00194374
-0.0175181
-0.011873
0.0119633
-0.119826
0.0105021
-0.00870457
0.0133075
-0.016948
-0.00433817
0.00949458
0.00416572
0.00157482
0.00414915
-0.00572397
0.00949458
0.00524095
-0.0132932
-0.0162115
0.00367612
-0.676129
-0.503616
-1.22197
-0.0843894
-0.0012546
-0.0149569
0.00886758
0.00163456
0.00274137
-0.00229865
-0.00481088
2.3813
-0.00943989
0.00853556
-0.00411073
0.00934366
0.0146828
-0.00435453
-0.00124763
0.00495616
-0.00495616
-0.00786506
0.00436494
0.00121329
-0.00557823
-2.04107e-05
0.00855597
0.277518
-0.0754119
-0.0116824
0.0961802
-0.0310793
-0.00591371
-0.177744
0.126951
-0.219105
-0.0195038
0.00180632
-0.0197032
0.000199483
0.0160061
1.03392
0.00336935
-0.0125987
-0.0154787
0.0733363
-0.00480509
0.00557823
-0.00077313
-0.00480509
0.00113883
0.00466175
-0.00580058
-0.000923594
-0.00266039
0.00358398
-0.890962
-0.140286
0.0447302
0.0175144
-0.0622446
-1.74724
-0.690328
0.0053336
-0.0163563
0.0191578
0.0151039
0.00402348
-0.00813421
0.0522407
1.34008
-0.0032739
-0.025789
0.0241294
0.00165957
0.00749965
-0.0216541
0.0115803
0.0100738
-0.00970605
0.0134659
-0.00375988
0.0140802
0.000219244
-0.0114065
-0.00286736
-0.0111873
0.0239556
-0.00987812
-0.0107266
0.0118785
0.00525607
-0.016712
0.00378985
0.0216236
0.716431
-0.0186419
0.00169154
0.0169504