/*--------------------------------*- C++ -*----------------------------------*\
| =========                 |                                                 |
| \\      /  F ield         | OpenFOAM: The Open Source CFD Toolbox           |
|  \\    /   O peration     | Version:  2206                                  |
|   \\  /    A nd           | Website:  www.openfoam.com                      |
|    \\/     M anipulation  |                                                 |
\*---------------------------------------------------------------------------*/
FoamFile
{
    version     2.0;
    format      ascii;
    arch        "LSB;label=32;scalar=64";
    class       volVectorField;
    location    "200";
    object      U;
}
// * * * * * * * * * * * * * * * * * * * * * * * * * * * * * * * * * * * * * //

dimensions      [0 1 -1 0 0 0 0];

internalField   nonuniform List<vector> 
2283
(
(10.0389 -0.0189381 1.71447e-18)
(9.75901 -0.00510893 5.49117e-17)
(6.03036 -1.06836 -5.01503e-18)
(6.27613 -1.08427 4.93713e-18)
(7.59375 -1.19246 0)
(7.62608 -1.27426 0)
(9.34153 -0.0619825 0)
(9.29555 -0.01421 -1.37128e-18)
(3.70274 -0.684531 -1.96209e-18)
(19.0957 6.29467 0)
(16.8635 4.13261 3.08427e-18)
(7.88429 0.593767 -5.83336e-17)
(6.96123 0.62692 -6.34302e-18)
(9.65897 -0.953625 6.45109e-18)
(7.67756 0.445874 -1.14178e-17)
(8.821 0.865047 0)
(9.00575 0.912956 2.14346e-18)
(7.30446 -0.544232 8.1387e-20)
(9.92586 0.00868819 0)
(7.24285 -1.22834 -5.70577e-18)
(8.59779 -1.35443 2.36476e-18)
(8.31909 -1.33954 0)
(9.04405 0.0242521 4.52951e-17)
(8.99355 0.0154621 -1.0782e-16)
(9.34616 -0.0385257 0)
(10.0864 0.00884042 6.27315e-17)
(8.80733 0.297677 0)
(10.8983 -0.998599 0)
(8.74226 0.270247 0)
(5.3998 -0.936867 1.67583e-18)
(3.62767 -0.619158 -5.48713e-18)
(8.49165 0.038954 0)
(8.43387 -0.0111179 -2.7738e-18)
(8.7729 0.0459949 -2.38832e-17)
(9.09877 0.0110361 0)
(8.66872 -0.189815 -8.33336e-18)
(8.7212 -0.234938 0)
(8.89455 0.110138 1.4274e-17)
(8.92359 0.120431 -1.98054e-17)
(9.7033 -0.0123271 -9.94022e-17)
(6.5327 -0.0611366 1.11978e-16)
(9.53715 -1.04336 -9.13192e-18)
(8.82423 -1.4152 2.08044e-18)
(9.26861 -1.45135 -3.66457e-18)
(11.1997 -0.822666 4.98716e-18)
(11.2509 -0.954074 0)
(7.52804 -1.43432 3.02727e-18)
(5.82497 0.350875 -1.56767e-18)
(5.63604 0.147517 0)
(8.76192 -0.0883404 -6.35099e-19)
(7.60937 -1.19229 3.91786e-18)
(8.81012 -0.0953283 1.50764e-19)
(9.73966 -0.388051 5.86274e-19)
(10.5124 -1.21005 2.77317e-18)
(10.2598 0.022289 -2.52836e-18)
(9.73806 -1.4434 -5.00068e-18)
(7.26219 -0.597853 0)
(7.29921 -0.227879 0)
(3.85007 -0.622065 0)
(10.1482 -0.079336 2.70526e-17)
(7.23343 -0.297396 -8.34458e-18)
(11.091 1.34315 -1.13914e-17)
(9.80722 -1.42866 0)
(11.197 -0.583262 1.4165e-17)
(3.70659 -0.66698 -1.65125e-18)
(9.82798 0.0778029 -1.00446e-17)
(10.0752 0.0652416 1.04256e-16)
(11.142 -0.46306 0)
(7.47124 -1.25571 -2.13418e-18)
(9.01626 -1.43279 3.0112e-18)
(7.98626 -0.855781 -2.71882e-18)
(8.51906 -1.34536 -2.92703e-19)
(9.6355 1.65738 2.73308e-17)
(6.55811 -0.0113607 3.44369e-17)
(9.30616 -0.670705 -3.14026e-17)
(8.57368 -1.29454 0)
(8.84862 0.0266861 1.4351e-18)
(8.77368 0.107287 1.79362e-18)
(8.99543 0.103718 0)
(9.02488 0.0788071 0)
(8.87106 -0.259573 1.2241e-18)
(8.89793 -0.281831 0)
(10.4407 -1.2294 -1.43293e-18)
(8.3347 -1.36774 5.34387e-20)
(3.65006 -0.836108 2.72215e-18)
(8.50046 -1.37687 2.30479e-19)
(11.4883 -1.44848 1.62021e-19)
(10.4467 -1.12534 0)
(10.1176 -1.48408 1.65164e-20)
(10.4185 -1.44249 1.88796e-18)
(9.50494 -1.13093 0)
(15.4244 8.59894 0)
(10.3982 -1.18946 0)
(8.85991 -0.203697 -1.21736e-17)
(8.75503 -0.232706 0)
(8.68591 -0.0160941 1.27037e-17)
(9.65564 1.29161 -2.09471e-17)
(7.47813 -1.30641 2.84133e-18)
(8.85392 -0.0304778 -4.11779e-17)
(6.81007 -1.20903 -4.17004e-18)
(10.3469 1.01892 -2.22762e-17)
(9.94842 1.06034 4.15904e-17)
(10.3596 -0.298185 4.55446e-17)
(10.0092 -1.44759 0)
(5.74383 -0.984265 0)
(10.0598 6.96877 0)
(9.41117 -0.0447568 -1.35777e-16)
(9.4735 -0.00502978 2.22819e-18)
(7.104 -1.13319 0)
(4.82493 -0.777833 0)
(9.16588 0.00693495 -6.72257e-17)
(8.61141 0.248154 1.32998e-17)
(8.68278 0.302112 -1.13934e-17)
(8.65945 -0.675324 -5.39628e-18)
(8.86687 -0.516621 -4.83371e-19)
(10.1082 6.64774 3.22789e-19)
(7.16597 0.447618 1.29423e-17)
(9.4602 -0.000429896 -2.12704e-17)
(7.85754 -1.38518 0)
(8.60252 -0.432111 7.37076e-20)
(8.56075 -0.579647 -4.19361e-18)
(9.40746 -1.44843 4.35548e-18)
(8.96785 0.270598 5.91582e-19)
(9.00606 0.296099 -4.56825e-18)
(3.66288 -0.693877 -3.8065e-18)
(8.35603 -1.21726 -1.5513e-17)
(9.57609 -1.12773 7.81665e-18)
(9.23877 -1.45483 0)
(7.85064 -1.30138 0)
(10.6955 -1.40973 2.20573e-18)
(8.26421 -1.09063 2.51067e-18)
(7.10172 -0.917351 0)
(4.72296 -0.5983 -1.90321e-18)
(9.36108 -0.468514 0)
(8.26123 -1.02635 0)
(7.40653 -0.973864 -1.13792e-18)
(9.04258 -0.159506 -3.10163e-17)
(9.05364 -0.17923 -6.94772e-18)
(7.237 -1.24153 0)
(4.2672 -1.42716 3.02826e-18)
(7.15168 -0.281105 4.15567e-18)
(7.90357 -0.746122 1.13379e-17)
(7.27355 -0.919639 2.83956e-18)
(8.02014 -0.946476 0)
(7.38359 -0.322665 -3.61607e-18)
(5.29406 -1.10348 0)
(11.6575 -0.00435198 4.80452e-18)
(8.86811 0.13719 3.89608e-17)
(9.01104 -0.0288038 0)
(9.11473 -1.04058 1.66285e-17)
(8.99386 -0.0130544 3.15312e-17)
(7.49063 -0.277432 -2.39456e-18)
(8.42165 -0.375287 -3.38176e-17)
(8.50067 -0.462397 0)
(7.5907 -1.26601 -6.38686e-18)
(8.22651 -1.29052 0)
(6.79986 -1.1894 3.7907e-18)
(6.26022 -1.11497 0)
(8.13175 -1.02779 -2.96572e-18)
(7.61325 -1.29209 -3.62449e-18)
(7.12566 -0.0750609 -5.65311e-18)
(10.1379 -0.0575676 -1.21587e-16)
(7.01419 0.0121538 1.03825e-17)
(11.6379 -1.21836 6.87335e-18)
(9.66834 0.344686 -2.03928e-17)
(11.2043 -1.0435 9.58646e-19)
(9.5103 0.34743 9.1031e-18)
(8.04128 -1.34267 4.86702e-18)
(9.22461 0.42688 -1.10561e-17)
(8.30561 -0.948458 2.5633e-18)
(5.86246 -1.03863 1.43394e-18)
(3.95587 -0.700239 0)
(5.81713 -1.27569 5.58268e-18)
(7.44163 -1.2656 7.32798e-19)
(9.34444 -0.243332 0)
(8.45949 -0.210484 2.4685e-18)
(11.0641 -0.843745 4.47357e-18)
(10.9847 -0.97491 -8.68776e-18)
(7.74147 -1.28069 1.71682e-19)
(6.60603 -1.10863 -2.98989e-18)
(9.19053 -1.30143 -9.22289e-18)
(6.74659 4.078 -1.03403e-17)
(4.24755 2.35932 3.39343e-17)
(9.36648 6.38056 -7.70866e-19)
(6.30231 -0.439559 8.5683e-18)
(6.1115 -0.513738 -4.08124e-18)
(7.55265 5.60648 1.79806e-18)
(5.49917 4.57363 -6.42456e-18)
(7.57956 -1.13816 -1.06928e-18)
(5.98114 1.58836 3.18581e-18)
(9.41441 -0.96611 3.74945e-18)
(8.6234 -0.0565687 0)
(9.10945 1.1525 6.43944e-18)
(9.11017 -0.901945 -2.19252e-17)
(5.93392 0.696824 -1.5011e-18)
(6.25599 0.678851 0)
(7.60644 -0.60832 6.38142e-18)
(7.60616 -0.525255 -1.09406e-17)
(10.5231 -1.29532 5.1888e-18)
(10.5561 -1.31365 -2.7063e-18)
(7.711 -0.83251 -3.44677e-18)
(7.71454 -0.768384 7.18801e-18)
(5.99001 -0.994225 6.15578e-19)
(10.6438 -1.26472 -3.48287e-18)
(6.65091 -1.18715 -4.31977e-19)
(9.15276 5.30122 -6.76767e-18)
(16.1736 3.45811 0)
(8.74648 4.85341 -4.07499e-19)
(7.53799 -0.462715 0)
(5.9517 2.41372 -6.84739e-18)
(9.03806 0.219236 0)
(9.01345 0.176719 0)
(4.47134 -0.897273 -9.5586e-19)
(7.93941 -0.999159 0)
(8.65049 -1.35937 0)
(8.10452 -0.995953 1.11539e-18)
(9.16068 -1.4317 -2.50965e-18)
(8.04964 -0.994905 2.55244e-18)
(9.65976 -1.29855 0)
(4.4585 -0.919346 -3.00824e-18)
(4.55177 -0.781888 0)
(7.9406 -0.435268 1.11097e-17)
(4.9903 -3.08667 1.5492e-17)
(8.36114 -1.32978 -1.34709e-18)
(7.95627 -1.37264 0)
(5.14449 -0.944001 -1.75916e-18)
(6.70869 -1.1867 -1.62307e-18)
(7.95259 -1.3359 4.02835e-18)
(6.39986 -1.12218 2.50862e-18)
(8.92159 0.611281 0)
(7.66499 -1.30642 0)
(5.27084 -1.26299 0)
(5.94372 -1.13112 -1.72402e-18)
(10.6611 -1.20355 -7.57742e-19)
(10.6187 -1.14006 0)
(8.21362 3.90136 1.98132e-19)
(5.26557 -0.928393 5.18943e-18)
(7.89859 -0.00739392 -1.33974e-17)
(3.68652 -2.06311 -3.08698e-17)
(9.04374 0.638047 -3.18494e-18)
(9.76885 -0.718788 -3.67575e-18)
(8.02826 -1.03231 1.93286e-18)
(3.76019 -0.681379 -9.70083e-18)
(9.09903 0.777176 3.11501e-18)
(7.42341 -1.3143 5.65626e-18)
(7.97714 0.139002 -1.15948e-18)
(8.30534 -1.36871 -1.19235e-18)
(8.54666 -1.38437 -2.45772e-18)
(8.09451 -0.565232 8.13035e-18)
(8.54661 0.502158 1.15096e-17)
(9.44498 0.00759528 0)
(5.49414 -0.943721 -9.90453e-18)
(5.3883 -0.82883 -7.94747e-18)
(9.65014 -0.803706 0)
(4.31782 -0.469972 8.5642e-18)
(8.51035 -1.37057 6.65581e-18)
(5.51021 -1.74091 -5.94427e-18)
(7.85665 -0.383324 4.47606e-19)
(7.90928 0.255594 2.11373e-17)
(12.1341 -1.25888 -1.07715e-18)
(11.8934 -1.33239 0)
(7.84182 -0.279223 -5.64216e-18)
(7.4636 -1.08577 2.36135e-18)
(5.19977 -0.876396 -1.64314e-18)
(7.24417 -0.94236 -6.19102e-18)
(9.84869 -1.3368 1.10239e-17)
(9.51563 -0.81403 -4.43719e-18)
(8.83233 -0.132679 0)
(7.68599 -1.2932 0)
(8.85047 -0.139752 0)
(7.74268 -0.233814 0)
(7.79068 -0.448902 9.30542e-18)
(7.52814 -0.133332 1.14516e-17)
(8.24454 -1.27156 -2.13847e-18)
(7.48276 -0.515065 0)
(8.28018 -1.19881 -5.98318e-19)
(7.20527 -1.25102 8.47158e-19)
(7.92798 -0.912126 -3.03396e-18)
(12.3506 1.57405 0)
(7.87965 -1.24985 4.14165e-18)
(7.96916 -0.953967 0)
(12.6005 2.01272 2.9256e-17)
(9.11372 -1.41213 -1.50013e-18)
(3.79317 -0.644845 -8.84827e-19)
(7.61749 -1.32236 -2.70481e-18)
(8.27024 -0.509012 -4.64824e-18)
(11.0329 -0.53264 -1.01408e-17)
(8.7134 -1.36047 -3.03708e-18)
(8.57964 -1.36976 -1.40661e-18)
(6.25356 -0.2148 -1.06034e-17)
(6.38965 -0.271201 1.04216e-17)
(8.56992 1.27933 -3.99785e-20)
(10.9741 -0.686238 1.03297e-17)
(8.14168 -1.40257 0)
(5.31399 -0.93387 2.99417e-18)
(7.21625 -1.21674 0)
(4.97013 -0.874174 0)
(9.30274 -1.45986 -2.1777e-18)
(8.08671 -0.740128 4.83881e-18)
(10.0435 -1.49574 0)
(7.68581 -1.40803 0)
(8.03585 -1.24324 0)
(8.01544 -1.24022 -1.02703e-19)
(8.79419 -0.2709 0)
(9.05072 -0.245741 1.87146e-17)
(8.67457 -0.165764 2.18048e-18)
(8.84319 -0.156443 0)
(7.42642 -0.488987 -9.23142e-19)
(9.05724 -1.33352 6.0951e-18)
(9.18274 -1.31761 0)
(8.5838 -0.361926 -3.3756e-18)
(9.62872 0.0195909 -5.7612e-17)
(8.31614 -0.401636 2.77308e-18)
(8.28682 -0.628093 6.15043e-18)
(8.41814 -0.772048 -2.82445e-18)
(6.59308 -0.584519 5.67075e-18)
(6.80711 -0.604151 1.2461e-18)
(10.9328 -0.487961 1.53412e-17)
(9.43774 0.0215583 5.59696e-17)
(8.25031 -1.18774 0)
(7.29878 -0.984303 1.12831e-18)
(9.08304 -1.35176 -5.20404e-18)
(10.2664 -0.0145697 0)
(8.82856 -1.36139 0)
(7.54502 -1.09697 4.47858e-18)
(7.51115 -1.1254 0)
(7.62972 -1.05083 0)
(7.66919 -1.02737 1.67846e-18)
(10.9012 -0.320352 2.50431e-18)
(3.44849 -0.611591 4.50468e-18)
(10.3921 -0.928742 0)
(6.66246 -0.63396 -5.28788e-18)
(6.72781 -0.0949572 7.52289e-18)
(7.79184 -0.967842 -2.28144e-18)
(8.89977 0.107641 0)
(8.859 0.102227 1.88159e-17)
(7.75001 -0.987057 2.7901e-18)
(9.87335 -1.41527 3.42346e-18)
(8.16101 1.78909 3.53817e-18)
(9.17086 -1.33877 1.00959e-17)
(9.3927 -0.311378 0)
(8.52739 -0.681065 -1.21793e-18)
(8.27379 -1.66575 1.70759e-17)
(5.54093 -1.15134 -2.61119e-17)
(8.49434 -0.83069 5.74352e-18)
(9.07556 -1.3441 -5.12907e-18)
(5.03856 -1.1247 -2.95888e-18)
(10.0222 -1.32392 -4.84708e-18)
(3.63309 -0.620318 2.1034e-18)
(8.6633 -1.41639 -7.5458e-18)
(8.1822 -1.28912 0)
(9.60716 -1.37625 0)
(7.49552 -0.606372 -2.94728e-18)
(9.32702 -0.382029 0)
(9.03278 0.0781793 -2.46387e-17)
(7.29313 -1.13875 0)
(8.3027 1.36372 -3.16263e-18)
(7.87786 -1.18932 0)
(7.82785 -1.19331 -4.06805e-19)
(7.92061 -1.1509 0)
(7.90928 -1.12534 0)
(7.24952 -1.21209 0)
(10.1864 -1.39247 -5.65519e-18)
(10.7247 -1.45437 8.19878e-18)
(9.20958 -0.156668 -3.68927e-18)
(9.11048 -1.33126 0)
(7.25268 0.900444 5.246e-18)
(8.97665 -1.43516 4.73884e-21)
(13.3141 -1.07353 2.17779e-17)
(6.72671 -1.122 1.61366e-17)
(4.57601 -0.764954 -1.44294e-17)
(11.1026 -1.19372 3.2097e-18)
(9.14151 -0.152093 3.06906e-18)
(11.0778 -1.0762 0)
(10.1689 -1.29812 1.06304e-18)
(8.57812 -5.09495e-05 9.11173e-18)
(9.12465 -0.177881 -2.10198e-17)
(11.573 -1.39261 0)
(12.9905 -1.16722 3.26824e-18)
(14.7872 -0.985495 -2.26798e-17)
(11.2135 2.28398 -2.27852e-18)
(8.58099 -0.448058 0)
(9.10009 -0.0517184 0)
(9.93548 -0.0119065 7.32808e-19)
(9.58289 -0.0061642 1.04606e-18)
(10.8932 -1.1222 6.91359e-18)
(8.88546 -0.069968 0)
(10.1031 -1.10774 7.2766e-18)
(10.1338 -1.04361 0)
(7.76603 -1.04807 0)
(7.80902 -1.0238 0)
(6.51954 1.50297 1.79129e-17)
(9.76163 -0.953811 2.48515e-18)
(10.0987 -1.35388 -1.43588e-18)
(11.0328 -1.229 0)
(8.71735 -1.36293 -2.16222e-18)
(10.9573 -1.19441 -3.67931e-18)
(10.1616 -1.25473 1.87025e-18)
(15.0188 -0.0461827 0)
(7.73753 -1.32626 -3.7085e-18)
(1.82054 0.226911 6.56004e-17)
(7.43432 -0.768052 1.74251e-18)
(7.46894 -0.721254 -6.90971e-18)
(7.38281 -0.774226 0)
(2.06709 0.944064 4.16978e-18)
(7.34414 -0.743474 0)
(8.34986 -0.791403 0)
(7.66993 -1.27224 1.57254e-18)
(7.23555 -1.19958 -1.71042e-18)
(6.88485 -1.19292 9.13876e-19)
(8.27467 1.95461 -2.72182e-18)
(10.1035 -1.27226 1.80553e-18)
(6.4623 0.0187278 6.14083e-18)
(8.21098 -0.445266 -2.05587e-17)
(7.63596 -0.972946 2.99385e-18)
(7.59318 -1.00565 0)
(9.14145 0.0348376 -2.23199e-17)
(7.71993 -0.921908 -5.15533e-18)
(7.76161 -0.900503 1.85076e-18)
(5.76337 -0.942209 0)
(6.8793 -0.304263 9.24729e-19)
(5.6932 -0.101046 2.54191e-17)
(8.34339 0.199863 0)
(10.2351 0.0578444 -1.47501e-17)
(2.85017 0.524144 -3.73021e-17)
(9.03369 0.0206462 1.85029e-17)
(9.05996 0.0304427 -4.15881e-17)
(8.83299 -0.0154164 -3.23412e-17)
(6.95577 -0.231803 -1.62725e-18)
(7.6165 -0.758935 0)
(8.81663 0.00818281 0)
(8.049 -0.282888 3.26206e-18)
(8.12435 -0.462414 2.08285e-17)
(7.66807 -0.729499 7.18682e-18)
(8.50525 -0.00576086 0)
(8.99661 0.0493023 3.48607e-17)
(8.97338 0.0626374 3.51e-17)
(8.96805 0.0380329 5.82921e-19)
(7.85167 -1.27908 -3.33532e-18)
(10.3427 -1.21582 -2.7156e-19)
(8.27899 -0.0274386 1.18215e-17)
(9.7284 0.0719676 -1.35504e-17)
(8.96813 0.00219385 0)
(7.84677 -1.40633 0)
(8.74888 0.57073 9.49323e-18)
(8.04554 -0.375147 0)
(7.87434 -0.932308 1.89976e-18)
(5.76147 -1.08001 0)
(4.59801 -0.714665 -6.77831e-19)
(8.26969 -0.755657 3.75485e-18)
(4.73147 -0.958489 -1.53248e-18)
(7.86465 -0.970263 -4.63261e-18)
(8.15104 0.828172 1.57631e-18)
(6.68212 1.27534 1.09486e-17)
(8.85306 -0.0431342 -1.55755e-17)
(6.2501 0.995339 0)
(8.22661 -1.30971 1.13894e-18)
(7.16053 -0.799429 -1.44373e-18)
(8.88521 0.0153068 2.82712e-17)
(8.98653 0.0123644 0)
(9.39071 -0.0304192 5.74877e-17)
(5.92458 0.939959 -1.00793e-17)
(6.03126 -1.07472 -3.04702e-20)
(8.79099 0.0546723 3.16062e-18)
(7.83726 -0.902035 -3.8744e-18)
(7.34322 -0.827451 0)
(6.63719 -1.15072 0)
(8.88525 -0.0358744 7.49707e-19)
(8.80958 -0.0777376 -1.10604e-17)
(8.93448 0.0341516 -2.30459e-18)
(8.99848 -0.0485139 7.48955e-19)
(4.04213 -0.721853 -5.58839e-18)
(11.2293 -1.27387 4.47418e-19)
(8.87982 -0.0415416 -9.82212e-19)
(8.62497 -0.258704 0)
(8.66595 -0.15846 3.68085e-18)
(8.57045 -0.208343 0)
(8.6422 -0.331051 0)
(8.57792 -0.345268 0)
(4.9975 -0.875886 5.41815e-19)
(6.18241 -1.09094 1.25403e-18)
(9.18166 -0.0688839 0)
(6.51111 0.0270838 5.48753e-17)
(9.69559 -0.293155 -2.9231e-17)
(8.88302 0.112066 -1.29683e-17)
(8.8734 -0.0457349 -1.7357e-17)
(6.41625 -1.13943 -9.70137e-19)
(8.58462 -1.04257 0)
(9.8603 -0.0263181 -5.39766e-17)
(5.24447 0.206746 -1.51457e-17)
(8.72625 -0.0914794 -8.45416e-18)
(8.6741 -0.0874449 9.54671e-18)
(8.86149 -0.0644348 7.42126e-18)
(8.98136 -0.0356156 7.33312e-18)
(8.87813 -0.0507097 -1.53672e-17)
(8.85679 -0.0395612 3.20018e-17)
(9.3253 -1.42284 -3.44294e-18)
(9.06498 0.0285565 -1.98892e-17)
(7.61978 -1.15075 -4.07471e-18)
(8.861 -0.035258 -6.51964e-17)
(9.87838 -1.35921 1.2871e-18)
(10.1522 -0.840265 0)
(8.92761 0.126861 1.49185e-17)
(8.93018 0.131158 -3.19609e-18)
(8.99973 -1.37677 -2.80407e-20)
(10.176 -0.905482 0)
(11.8572 0.328009 0)
(10.1438 0.110756 -6.94045e-17)
(9.23136 0.020735 -1.99837e-17)
(9.63422 0.0622163 0)
(8.39586 0.1487 1.23253e-17)
(8.45393 -0.383585 0)
(9.143 0.0424033 4.07228e-17)
(9.05687 0.0838428 -6.81156e-17)
(9.19721 0.0785238 5.23039e-17)
(8.75221 -0.115344 5.3829e-19)
(8.81484 -0.0585829 -7.71224e-19)
(11.8052 0.0612262 -1.42906e-17)
(11.3358 -0.134197 -1.0439e-17)
(11.1894 -0.251644 1.02534e-17)
(11.1918 0.266476 -3.59927e-17)
(11.4016 0.113881 9.94189e-18)
(9.08543 0.0781281 2.92528e-17)
(9.00222 0.0558448 -3.66909e-17)
(8.86518 0.270134 0)
(8.83107 -0.423661 2.60433e-17)
(8.90021 0.0575816 2.17148e-17)
(8.87837 -0.471497 4.17707e-18)
(9.02723 -0.0909206 -2.77641e-17)
(9.03565 -0.0734777 2.56208e-17)
(9.68406 0.0580625 -1.36873e-17)
(8.3654 0.0505295 0)
(3.51434 -0.766782 -1.09481e-18)
(8.34314 0.711404 -1.28443e-17)
(8.52845 0.812775 8.12679e-18)
(9.08386 -0.0566594 -2.39569e-17)
(9.02388 -0.0660382 0)
(8.99265 -0.114308 0)
(8.92422 -0.00770872 1.85112e-17)
(9.01992 -0.123339 3.62789e-19)
(11.9591 -0.114238 -3.3005e-18)
(11.8244 -0.139489 9.16412e-18)
(10.5318 0.0193024 -6.98819e-18)
(10.6757 -0.857079 -5.05127e-18)
(10.397 -0.0511378 2.7973e-17)
(8.32115 -1.16193 2.51941e-19)
(10.0586 -0.3104 0)
(8.88602 0.0823419 1.46634e-19)
(9.68711 -0.0496637 2.19742e-17)
(9.36517 -0.00928012 -5.5057e-18)
(9.05652 -0.0244139 -1.76459e-17)
(8.9266 0.0614962 -2.09416e-17)
(10.0601 -0.0779458 5.46275e-18)
(9.9362 -0.0638138 -7.69531e-18)
(9.52975 -0.0108578 0)
(9.64457 -0.010811 5.47083e-18)
(9.42416 -0.0277669 -9.56638e-18)
(10.0136 0.113868 -6.8664e-18)
(9.939 0.0551313 3.5265e-18)
(8.96254 0.0594893 5.45527e-17)
(7.74529 -0.0124965 0)
(7.69702 -1.30542 1.46826e-18)
(7.99462 -1.3303 0)
(8.009 -1.26372 -9.83242e-19)
(7.78215 -1.3107 4.58139e-19)
(7.30874 -1.24414 -5.79305e-19)
(8.01517 -1.25901 1.0978e-19)
(9.98923 -0.124661 5.44175e-17)
(9.36563 -0.0803594 -5.33552e-17)
(10.1724 -0.0780317 -4.6137e-17)
(9.53283 -0.0580019 0)
(10.0651 -0.221476 4.61294e-17)
(8.72212 -0.369239 0)
(7.95732 -1.02471 0)
(8.85726 0.0452629 -1.68155e-17)
(7.08734 -1.25267 8.07993e-18)
(8.40164 0.325091 -4.64032e-18)
(10.059 -0.442661 0)
(7.37879 -0.407255 7.64177e-18)
(9.73356 0.0352576 3.33562e-18)
(6.62132 0.00518218 0)
(8.6264 0.592362 -1.35935e-17)
(9.56782 -0.0754071 7.11131e-17)
(7.98754 -1.03825 3.08943e-18)
(7.37701 -0.570359 6.87589e-18)
(9.01058 0.00650402 3.86604e-17)
(8.44188 -0.676373 -1.60454e-18)
(6.9168 -0.145226 0)
(9.67532 0.0484199 3.09495e-18)
(6.61724 -0.00969816 0)
(7.52852 -1.15241 1.71754e-18)
(10.0537 0.0569896 -6.2704e-17)
(6.92264 0.120851 0)
(7.50612 -1.1759 2.32864e-18)
(8.38256 -0.612926 0)
(10.0712 -0.100783 -8.21744e-18)
(8.83103 0.633104 -7.62368e-19)
(8.79549 -0.0178244 2.46411e-17)
(6.71635 0.179138 -3.28922e-17)
(9.18543 -0.0917135 0)
(6.43907 0.0134942 1.20339e-16)
(8.56165 -0.153125 -9.55925e-18)
(8.59247 -0.156409 0)
(7.14797 -0.709622 0)
(10.3013 -0.0721777 2.57038e-16)
(10.0616 -0.181117 -4.65629e-17)
(3.71544 -0.126947 -4.36982e-18)
(9.99899 0.141844 9.1149e-17)
(10.174 0.314513 2.63826e-17)
(8.63094 -0.191854 0)
(6.16541 -1.04905 0)
(7.07553 -0.763149 0)
(5.24484 -0.901661 0)
(2.55881 -0.150776 0)
(8.15648 -1.33315 0)
(8.80978 1.57956e-05 6.90383e-19)
(8.94242 0.0434622 0)
(8.98395 0.0284044 -1.95924e-17)
(8.93098 -0.0236239 -1.33423e-18)
(8.90949 -0.113882 0)
(8.50971 0.330102 0)
(9.19013 0.00299251 2.04463e-17)
(8.90738 -0.0237936 2.29106e-17)
(9.92207 0.000560603 0)
(8.71974 -0.118864 6.83373e-18)
(8.97623 -0.0567719 1.95873e-18)
(10.5179 -1.00132 -1.72009e-18)
(10.1014 0.0331432 -5.63876e-18)
(9.43004 -0.0277917 6.44673e-18)
(8.88707 0.0143646 3.08499e-17)
(10.1752 -0.600254 -7.7659e-18)
(10.6027 -0.974828 -5.44607e-18)
(10.0917 0.461162 -1.15962e-17)
(9.79522 -0.0613656 0)
(9.56354 -0.308703 -1.19992e-17)
(6.79035 -0.951264 2.60809e-18)
(8.97087 0.00198219 8.00399e-17)
(9.00842 0.0205583 -8.19812e-17)
(10.1451 -0.682716 -4.25612e-18)
(8.37007 -1.18251 -2.29968e-18)
(8.13333 -1.33876 1.09579e-20)
(10.1402 0.0411791 9.50941e-17)
(10.4352 -1.07653 2.91992e-18)
(6.40702 2.694 2.7185e-18)
(6.8153 -0.837996 0)
(9.48117 -0.348644 -5.01571e-19)
(8.59488 -0.119758 0)
(8.62871 -0.119543 0)
(9.94778 0.580892 -1.70537e-17)
(8.28149 -1.24595 4.43617e-18)
(9.53198 -0.165009 -2.75484e-17)
(9.02648 0.175587 1.44307e-17)
(8.5221 -1.07921 -4.52891e-18)
(8.86802 -0.00922872 0)
(8.99391 0.000445525 -1.4698e-17)
(8.07337 -1.34188 -1.35608e-18)
(9.02172 0.195777 9.25442e-19)
(8.90418 0.0191065 0)
(9.22462 -1.23455 -6.45612e-18)
(7.28132 -0.664705 6.95496e-18)
(8.99959 0.135759 3.35253e-17)
(8.90084 0.0163564 -2.26032e-17)
(9.72987 -1.26265 1.83497e-18)
(10.6107 -1.01624 3.62068e-18)
(8.91453 0.113091 0)
(8.64837 -1.38339 1.60856e-18)
(7.2317 0.198755 0)
(8.97622 0.129976 0)
(8.68067 -0.0239203 6.34098e-18)
(6.68319 0.212137 0)
(8.69854 0.0638483 -5.62483e-18)
(10.5543 1.46375 8.18605e-18)
(8.61153 -0.312751 3.42577e-18)
(8.10402 -1.33986 0)
(8.55007 -0.280133 8.1842e-18)
(8.68144 -0.21007 -1.2058e-17)
(8.4965 -1.37909 4.79558e-19)
(8.87944 -0.231452 -1.23244e-18)
(9.76636 -1.31745 0)
(5.08543 -0.925868 -2.13039e-18)
(8.98846 -1.40834 -9.57329e-19)
(10.4632 -0.40986 0)
(4.66008 -0.87948 -1.10611e-17)
(6.11852 -0.991198 6.82897e-18)
(6.41572 -1.19898 -1.05573e-17)
(4.92895 -0.916811 0)
(11.2509 7.33409 1.35252e-17)
(9.46586 0.0894296 0)
(10.2208 -0.296343 0)
(9.26625 0.0406979 7.06733e-18)
(6.15668 -0.0201061 0)
(9.79863 -0.458291 6.03312e-17)
(4.39538 -0.688893 1.85956e-17)
(9.52921 -1.38033 -3.52275e-18)
(9.64754 -1.35316 0)
(8.86479 -0.0766254 -2.66448e-17)
(9.27943 0.0531725 -4.75525e-17)
(9.53617 -1.37464 1.12282e-18)
(6.73163 -0.938901 5.43569e-18)
(10.2759 -0.244888 1.34618e-17)
(10.1463 -0.181574 -1.93469e-17)
(9.13418 -1.34899 2.69199e-18)
(7.99507 -1.27225 1.80534e-18)
(9.92008 -1.1078 0)
(7.12163 -0.95683 2.34004e-18)
(7.03515 -0.979439 7.62647e-19)
(7.22309 0.0063528 1.32552e-17)
(5.65144 -0.369116 4.51991e-18)
(8.63307 -0.0265026 -6.62363e-18)
(6.9465 -1.00648 6.47762e-18)
(9.875 0.161396 -1.09002e-16)
(9.11877 0.0699382 4.41681e-17)
(7.09334 -1.21936 8.35777e-18)
(7.94293 -1.29961 0)
(7.12948 -0.98805 0)
(6.9203 -1.19054 7.86157e-19)
(9.25472 -1.33947 -3.49203e-18)
(9.06955 0.0459614 2.32261e-17)
(7.9918 -1.29254 -1.5961e-18)
(9.06556 0.0422894 -5.20605e-17)
(8.90129 -0.0802626 2.07846e-17)
(9.86657 -1.0645 -1.54925e-17)
(8.52319 -1.3701 -1.58297e-18)
(8.19859 -1.35628 0)
(9.98698 -1.28482 0)
(10.0454 -1.2433 1.94056e-18)
(9.02314 -0.054335 -3.58861e-17)
(9.96766 -1.32553 0)
(8.55568 -1.08172 2.10377e-18)
(8.89433 -0.0417809 -1.205e-17)
(8.86583 -0.0329251 1.30307e-17)
(7.57037 5.99002 4.59193e-18)
(10.0009 -0.89403 0)
(9.94211 -1.05159 0)
(9.81001 -1.19855 0)
(10.0646 -0.826974 0)
(9.28311 -1.33493 0)
(8.81713 0.0759815 1.94725e-18)
(10.0549 -0.756464 0)
(8.92156 0.101327 -5.31023e-18)
(8.89731 -1.19795 -2.32837e-18)
(3.28021 -0.376685 0)
(4.47269 -0.431507 -1.37889e-17)
(7.24642 -1.25995 0)
(8.98633 0.0302218 0)
(9.34179 0.0253318 0)
(3.50755 -0.611984 5.67334e-18)
(9.45005 0.0294753 -2.70408e-17)
(8.95874 -0.972301 -3.63077e-18)
(8.72312 -0.815176 1.23057e-18)
(11.9757 -0.412555 2.32144e-18)
(11.779 -0.502845 6.35408e-18)
(7.24566 -1.23189 0)
(9.8367 -1.15427 0)
(9.3741 -0.929962 5.5396e-18)
(8.85524 0.0278856 0)
(8.95685 0.0270996 1.00191e-16)
(8.37456 -1.23883 0)
(7.0499 -0.972193 0)
(9.38983 -1.06066 0)
(6.0832 -1.02509 1.04369e-18)
(9.05655 -0.00396993 3.28667e-17)
(9.01706 -0.0211461 0)
(8.59426 -1.1012 -7.13308e-19)
(9.7403 -1.23048 4.74088e-18)
(9.00589 0.00354345 0)
(7.77503 -1.31568 1.88225e-18)
(12.0497 -0.82278 -5.11531e-18)
(8.44534 -1.27885 1.24272e-18)
(9.35842 -1.36561 1.76031e-18)
(8.71089 -1.11058 0)
(10.5942 -1.48666 0)
(5.46902 -0.965158 -3.32492e-18)
(9.02133 0.00560778 2.35517e-17)
(6.4671 0.832455 -5.77435e-19)
(6.94139 -0.956186 6.30333e-18)
(7.73648 -0.638356 7.58188e-18)
(7.73734 -0.578074 2.56276e-18)
(7.67538 -0.515862 5.74634e-18)
(11.7647 -0.703462 4.22181e-19)
(8.6804 0.366049 0)
(4.92558 -0.891886 0)
(9.22644 0.00734997 2.05827e-17)
(9.0686 0.0224114 -1.93519e-17)
(9.05858 0.01515 0)
(9.27512 -0.0438203 2.83275e-17)
(9.31213 -0.051182 2.52976e-17)
(10.6439 -0.211369 0)
(3.52081 -0.623598 0)
(8.86915 -0.0391903 -1.88216e-18)
(8.58188 0.39648 0)
(8.89762 -0.0513103 1.44738e-17)
(10.9598 -1.41844 0)
(8.40232 -1.33066 -9.92371e-19)
(9.88494 -0.0341755 5.70284e-17)
(5.45529 -1.09118 -6.22932e-18)
(8.29807 -1.27153 -1.10278e-18)
(5.06705 -0.844804 1.77624e-18)
(9.41907 0.0529538 0)
(6.5732 4.7417 1.77529e-18)
(9.09555 -0.0264545 5.62749e-19)
(11.185 0.882618 3.30577e-17)
(11.6244 0.750166 0)
(11.1926 -1.37586 2.37577e-18)
(11.6788 0.452353 0)
(8.51441 -1.16306 3.72739e-18)
(7.82087 -1.13394 0)
(8.08856 -0.524186 1.3793e-19)
(10.552 -1.15685 0)
(9.2411 -0.345767 0)
(8.50457 -1.18917 -2.81322e-18)
(8.16612 -1.26761 5.58027e-18)
(5.35368 -0.809656 -2.86667e-18)
(10.0597 -1.37972 0)
(9.11977 -0.0513998 2.19638e-17)
(9.21626 -0.266174 2.65199e-17)
(4.77936 -0.863273 -7.56382e-18)
(8.17012 -0.478459 -5.04386e-18)
(7.48227 -1.24653 4.38685e-18)
(5.99742 -0.837386 1.05309e-17)
(7.54104 -1.20404 -4.59592e-18)
(7.09549 -0.391268 6.85451e-18)
(11.6862 -1.38039 -1.1109e-17)
(7.10809 -0.20669 -2.20601e-18)
(7.46471 -1.02783 -2.3293e-18)
(7.50969 -1.0251 1.94732e-18)
(7.44784 -0.990661 0)
(7.43131 -1.01251 3.38235e-20)
(11.2538 7.32356 0)
(10.221 4.24391 1.26991e-17)
(8.71952 -1.33315 0)
(6.66917 0.0343046 -5.79044e-17)
(8.67959 -1.35282 -7.03783e-18)
(8.65852 -0.253367 0)
(8.3151 -1.32021 4.15295e-20)
(8.71987 -0.270761 8.20057e-19)
(7.07492 0.00637256 -9.53116e-17)
(8.8645 -0.132602 -3.78373e-20)
(8.60183 0.0399267 1.46302e-17)
(8.64741 0.0290415 -2.16594e-17)
(8.81373 -0.16821 -9.4782e-18)
(8.81841 0.405217 -2.48205e-18)
(6.55184 -0.874712 -7.83707e-19)
(8.87476 -0.639731 6.60503e-19)
(9.58425 0.0207152 0)
(8.33888 -1.27131 0)
(7.68408 -0.127268 -1.45697e-18)
(8.90352 0.433319 -8.427e-19)
(6.40667 0.0173931 0)
(4.1177 -0.552501 -4.04906e-18)
(11.3471 6.20601 -2.10487e-17)
(8.94206 0.486416 1.87106e-18)
(7.79017 -0.708935 6.78002e-18)
(8.27156 -0.484731 2.03904e-18)
(11.3967 -0.956901 0)
(7.33326 -0.16397 0)
(9.12237 -0.479019 -1.64313e-17)
(11.8581 -1.06397 0)
(6.03285 -0.538576 -3.76066e-18)
(10.5172 -0.915422 0)
(9.9238 -0.918966 0)
(9.17788 -0.376555 -2.88191e-18)
(10.02 -0.984248 0)
(9.97957 -1.10382 -3.84663e-18)
(6.41303 -0.475348 1.37581e-18)
(6.61789 -0.397844 3.8991e-18)
(10.5076 -0.734582 0)
(10.6189 -0.840549 5.50482e-18)
(9.0987 0.547878 -1.87021e-17)
(10.6217 -0.754942 0)
(9.1947 0.53095 3.8572e-17)
(9.58625 0.184565 1.02802e-17)
(8.88605 0.0917563 -1.63845e-17)
(9.17251 -0.011161 -4.97509e-19)
(9.1413 0.286738 -4.9825e-17)
(7.01558 0.0150329 -9.64378e-17)
(8.81315 -1.44416 0)
(6.49338 0.0061435 -8.08648e-17)
(9.03974 0.466347 4.22138e-18)
(10.1041 0.109474 1.60157e-17)
(9.77893 0.140765 3.03349e-17)
(9.51271 0.0234278 -2.6975e-17)
(10.0682 -0.0355415 -5.7219e-17)
(9.81328 0.201266 0)
(7.08351 -0.095883 -2.59167e-16)
(9.78336 -0.191394 5.10251e-17)
(12.3213 0.135602 7.40188e-18)
(6.58911 0.0137163 0)
(8.89374 0.1137 -4.32404e-17)
(12.4693 -0.293999 1.18432e-17)
(10.287 -0.557196 -1.62883e-17)
(7.36006 -1.21187 -4.57763e-18)
(9.31352 0.395168 2.15676e-17)
(10.1629 6.54611 -2.83599e-18)
(9.30357 0.306838 -9.58041e-17)
(8.77632 -0.628715 -2.50049e-18)
(8.62601 -0.528954 1.18393e-17)
(7.42896 0.6397 -1.52379e-17)
(10.9146 6.68926 -8.74813e-18)
(8.58263 -0.724755 -3.69008e-18)
(6.58902 -0.224386 0)
(9.54535 0.116574 0)
(9.62384 -0.13175 -5.73876e-17)
(6.8162 0.248841 0)
(6.35133 -0.132835 1.43288e-16)
(8.89739 0.21607 -8.5935e-17)
(6.36397 0.0974359 0)
(8.92563 -0.210021 0)
(6.40303 -0.0144191 0)
(7.23686 -1.07103 1.31924e-18)
(8.91354 -1.37087 -3.65927e-18)
(9.07611 -0.0990073 -2.0074e-18)
(8.70453 -1.36782 0)
(10.2439 -1.06129 1.08417e-17)
(10.8594 -0.715917 -3.15362e-18)
(9.09373 -0.0596441 0)
(12.0181 -1.37399 4.49912e-18)
(7.28762 -1.14504 1.36375e-18)
(12.2584 -1.2387 1.11865e-18)
(4.00151 -0.592374 1.31936e-17)
(5.4779 -0.84923 8.87256e-18)
(7.36178 -1.04528 0)
(7.31696 -1.04336 -1.21975e-18)
(11.9128 -1.37905 -7.16387e-18)
(8.05281 -0.933476 0)
(8.86145 -0.0355407 3.82552e-17)
(8.89818 -0.0247887 -1.82646e-17)
(7.93826 -0.690468 7.85813e-18)
(8.86825 -0.0250242 0)
(10.3149 -1.50077 -3.50968e-18)
(9.07098 -1.45121 0)
(6.97059 -1.27172 2.06063e-19)
(7.87659 -0.648024 5.38365e-19)
(9.33422 -1.43988 1.06423e-18)
(6.09827 0.357166 -5.32949e-18)
(6.76197 -1.27311 -2.5241e-18)
(6.59114 -0.0670063 9.35253e-17)
(6.53852 4.20146 -1.33535e-18)
(6.16312 0.195181 -5.01066e-18)
(9.47376 -0.712492 1.16258e-17)
(6.44307 0.170484 5.03816e-18)
(6.72923 0.308776 0)
(9.07398 0.180793 3.27659e-17)
(12.4297 -1.09672 1.89469e-18)
(8.20542 -1.13959 0)
(4.4885 -0.698099 0)
(8.75814 0.0419652 8.0423e-18)
(8.6769 0.0487926 -6.13535e-18)
(6.5033 -0.97274 -3.41533e-18)
(6.21221 -1.03095 -7.38004e-19)
(6.76798 1.19992 3.68626e-17)
(8.41768 0.839715 -1.86762e-17)
(8.21773 -1.16983 -1.32808e-18)
(7.47753 0.479266 1.47633e-17)
(7.29345 1.99415 -3.55169e-18)
(5.19538 -0.948591 0)
(6.86519 -0.989553 -7.6813e-18)
(5.17269 -0.959738 1.50372e-18)
(7.6522 2.40166 5.4769e-17)
(6.10471 -0.992641 -3.04081e-17)
(8.1664 -1.21383 1.51932e-18)
(7.55944 1.6172 2.0068e-17)
(4.25041 -0.679262 8.91706e-19)
(7.47855 0.129647 -2.59799e-17)
(9.06822 0.293968 0)
(8.58139 -1.01744 1.90756e-18)
(7.65127 0.137166 0)
(9.15307 0.257444 2.41076e-17)
(8.10306 -1.26237 -1.70743e-19)
(8.10887 -1.30101 1.44659e-18)
(7.58366 -0.678021 4.9249e-18)
(8.84196 -0.183555 2.40301e-18)
(8.13344 -1.27335 1.71534e-19)
(12.16 -0.960921 6.12095e-18)
(9.01074 0.172066 2.55454e-17)
(9.76781 -1.03754 -2.28225e-18)
(7.92489 5.83318 0)
(5.84236 4.09283 1.67363e-18)
(8.04254 -1.30068 -1.66227e-18)
(10.7574 -1.04855 -2.63211e-18)
(7.86518 -0.580034 0)
(12.5744 -1.07148 8.2857e-20)
(10.6696 -1.06012 0)
(10.2993 -0.727643 0)
(9.67322 -1.31808 1.12246e-20)
(9.6174 -1.34511 -3.35518e-18)
(7.77797 -0.826513 -5.04119e-18)
(12.705 -0.892719 0)
(6.34524 -1.09593 -2.55104e-18)
(7.94236 -0.524548 0)
(12.8329 -1.20209 -5.0024e-18)
(9.58407 -0.110811 -1.43722e-17)
(10.2781 -1.08231 -5.71119e-18)
(12.9493 -0.862871 3.32767e-18)
(9.57021 0.63788 2.25361e-17)
(7.2381 -1.29349 5.11423e-19)
(6.8135 -1.15791 0)
(6.77563 -1.15768 -2.75025e-18)
(8.33239 -1.38585 3.97973e-18)
(8.59311 -0.787593 0)
(10.007 -0.023655 7.48918e-18)
(8.12873 -1.20103 -1.59682e-18)
(9.42122 0.47297 -1.51804e-17)
(9.42712 0.564243 -2.208e-17)