/*--------------------------------*- C++ -*----------------------------------*\
| =========                 |                                                 |
| \\      /  F ield         | OpenFOAM: The Open Source CFD Toolbox           |
|  \\    /   O peration     | Version:  2206                                  |
|   \\  /    A nd           | Website:  www.openfoam.com                      |
|    \\/     M anipulation  |                                                 |
\*---------------------------------------------------------------------------*/
FoamFile
{
    version     2.0;
    format      ascii;
    arch        "LSB;label=32;scalar=64";
    class       volScalarField;
    location    "100";
    object      nuTilda;
}
// * * * * * * * * * * * * * * * * * * * * * * * * * * * * * * * * * * * * * //

dimensions      [0 2 -1 0 0 0 0];

internalField   nonuniform List<scalar> 
2283
(
0.17434
0.230523
0.00357357
0.00443766
0.0072672
0.00821433
0.129672
0.132247
0.00144542
0.00477747
0.0035506
0.0972238
0.0030424
0.0599362
0.0887665
0.121231
0.120341
0.0444102
0.182678
0.0050999
0.0134564
0.0119877
0.140029
0.139913
0.161784
0.211274
0.135221
0.0294018
0.135199
0.0021087
0.0012552
0.130953
0.126538
0.140709
0.140203
0.126872
0.120883
0.140797
0.14062
0.296511
0.225619
0.0512231
0.00789681
0.00890631
0.0324953
0.0261904
0.010698
0.0237601
0.0191922
0.137915
0.01288
0.133021
0.00487827
0.023697
0.100552
0.0132298
0.039388
0.0583239
0.00230728
0.102913
0.0512569
0.0741948
0.013366
0.0461791
0.00101337
0.161979
0.217778
0.0533861
0.00620353
0.00992213
0.0509606
0.00476544
0.0960891
0.192042
0.0729204
0.00649543
0.141522
0.139586
0.140535
0.141053
0.0776863
0.101646
0.0233308
0.0041325
0.00134466
0.0039843
0.00982744
0.0311173
0.0111702
0.0127302
0.0422338
0.00525117
0.0266551
0.0806091
0.0612412
0.141674
0.105374
0.00703655
0.145078
0.00500126
0.0960603
0.105967
0.292017
0.0116477
0.00228965
0.00301563
0.353821
0.153723
0.00361649
0.0024857
0.144263
0.132936
0.132785
0.0669014
0.0536763
0.00311065
0.0063236
0.155301
0.00802228
0.0390479
0.0788023
0.0124104
0.136896
0.136545
0.00116723
0.00932604
0.0418201
0.011937
0.0113404
0.0138207
0.030922
0.00366791
0.002527
0.0970548
0.0368402
0.0224137
0.113613
0.112979
0.00855282
0.00746131
0.0472915
0.00998435
0.0154841
0.0421741
0.0598221
0.00195378
0.0504467
0.14043
0.140063
0.0466412
0.14998
0.0675508
0.105451
0.0968662
0.0106121
0.00954721
0.0050527
0.00445455
0.0359064
0.00779763
0.0519526
0.193877
0.0479743
0.0155469
0.123278
0.0235372
0.128151
0.00934249
0.132747
0.0456735
0.0024308
0.00141502
0.00274639
0.00721224
0.120741
0.00551838
0.0343651
0.0293628
0.00602967
0.00580956
0.0244457
0.0138658
0.00513819
0.00274149
0.0220215
0.0176306
0.0018557
0.0076779
0.0156998
0.00357672
0.00370518
0.138587
0.113483
0.0541579
0.0280968
0.0341033
0.0554523
0.0611865
0.019081
0.017939
0.0434474
0.0480016
0.00354511
0.0198766
0.00215841
0.0151862
0.0101048
0.019669
0.0612957
0.0210251
0.139453
0.140376
0.00187229
0.0352768
0.0148355
0.0394135
0.00666834
0.0381941
0.0234182
0.00153913
0.0019993
0.0831867
0.00237534
0.013402
0.00672734
0.00185137
0.00605288
0.00930276
0.00478318
0.128869
0.00819632
0.00254704
0.00333558
0.0230383
0.0268956
0.0378693
0.00215673
0.0981423
0.00202832
0.128172
0.0788119
0.0333386
0.00143148
0.124464
0.0100624
0.10366
0.0106223
0.0113747
0.0798435
0.124567
0.16675
0.0023597
0.00209432
0.0716814
0.00133051
0.0169494
0.00198033
0.0820174
0.100476
0.0128199
0.0115543
0.0867816
0.01694
0.00204683
0.00229204
0.0202979
0.0695269
0.0719747
0.00857064
0.0772532
0.082632
0.0751505
0.0744237
0.0127095
0.0545978
0.0191305
0.00676504
0.0432421
0.0408631
0.0111053
0.0401938
0.0309772
0.0137048
0.00142447
0.0111573
0.0900789
0.0540827
0.0135122
0.0127689
0.0251614
0.0265121
0.105617
0.0490126
0.006398
0.00205365
0.00356718
0.00251161
0.0086941
0.0119723
0.00994841
0.00571408
0.0122716
0.0121206
0.0690545
0.0951028
0.0515565
0.0746544
0.0526111
0.0228562
0.021948
0.0368906
0.160369
0.0265202
0.0794929
0.0621933
0.023527
0.0267793
0.059843
0.151978
0.0196502
0.0191874
0.0182647
0.193512
0.0162421
0.0175916
0.0149903
0.0229705
0.0257586
0.0666278
0.00116861
0.050162
0.0230094
0.0370353
0.0341289
0.142203
0.140522
0.0310763
0.0144767
0.0772118
0.0202721
0.114366
0.0700675
0.00342488
0.00165636
0.0539022
0.0196124
0.00177311
0.0205925
0.000997255
0.00908121
0.0099146
0.00655012
0.0499022
0.106093
0.140584
0.00773911
0.094786
0.0164973
0.0153816
0.020303
0.0225707
0.00666606
0.00682249
0.00779906
0.128272
0.021365
0.049309
0.00989092
0.00693969
0.00478982
0.00332015
0.0199381
0.129918
0.0241251
0.0215594
0.137742
0.126596
0.00718862
0.00717979
0.0081968
0.00611037
0.0988745
0.143581
0.17803
0.159591
0.0255467
0.10928
0.0398863
0.045566
0.0264651
0.0297009
0.0256098
0.0593076
0.0183796
0.0189654
0.0174365
0.0209136
0.0249588
0.0122384
0.00434094
0.00276112
0.0363364
0.0408861
0.03375
0.00359038
0.0340973
0.0608844
0.0100842
0.00833171
0.00667989
0.00401195
0.024173
0.0330648
0.0942638
0.0290463
0.0254823
0.144199
0.0356235
0.0389914
0.00311076
0.0372663
0.0178426
0.121292
0.209298
0.00621593
0.139963
0.140296
0.0912945
0.0417332
0.044856
0.112462
0.0972426
0.0890028
0.0492548
0.132777
0.140467
0.140625
0.140495
0.00954802
0.0252696
0.117485
0.140722
0.139342
0.00675091
0.127666
0.091602
0.0401081
0.00301492
0.00144838
0.0647254
0.00144273
0.0359765
0.104317
0.0354628
0.0827043
0.0344976
0.00787744
0.0258524
0.118504
0.13379
0.160957
0.0274197
0.00292375
0.142081
0.0416055
0.0296314
0.00452665
0.117341
0.130386
0.14453
0.135826
0.00173524
0.0169475
0.121957
0.119937
0.130425
0.125048
0.111984
0.109488
0.00260009
0.00350741
0.214142
0.193329
0.243429
0.141351
0.137149
0.00409785
0.0211805
0.268375
0.0137871
0.139738
0.138041
0.145922
0.149585
0.121774
0.11128
0.0132162
0.139872
0.015693
0.107553
0.0184244
0.0635687
0.140762
0.140787
0.0150378
0.0580193
0.0494417
0.2325
0.150313
0.183584
0.124555
0.0356649
0.145591
0.144567
0.14665
0.132938
0.145966
0.0465396
0.057494
0.0594191
0.0708574
0.0619989
0.140511
0.140796
0.136753
0.0590387
0.126927
0.0621916
0.135264
0.139483
0.152464
0.123071
0.00121451
0.113784
0.117764
0.143263
0.139772
0.132849
0.146257
0.131443
0.0356593
0.039986
0.0900081
0.046248
0.0936383
0.0225456
0.0978204
0.14138
0.163226
0.155309
0.148516
0.141456
0.227745
0.195638
0.155942
0.16444
0.154629
0.250177
0.217798
0.141926
0.0900151
0.00967555
0.0108196
0.00773574
0.00974619
0.00786882
0.00906038
0.305021
0.164795
0.237393
0.17615
0.192267
0.102498
0.0326056
0.141312
0.00442456
0.12301
0.147997
0.054578
0.323286
0.248428
0.124473
0.152834
0.031947
0.046474
0.310482
0.0728774
0.282079
0.409653
0.313152
0.013814
0.157982
0.13116
0.0110863
0.0809201
0.178935
0.126539
0.263718
0.256463
0.424581
0.329606
0.12945
0.130542
0.030021
0.157716
0.223159
0.00511709
0.322029
0.317859
0.127314
0.00342252
0.0257729
0.00196476
0.00274321
0.00535397
0.139354
0.140927
0.140008
0.129848
0.127998
0.127181
0.14792
0.11289
0.155061
0.134636
0.148601
0.0407091
0.257091
0.371224
0.140779
0.0794142
0.0406879
0.109891
0.376648
0.112753
0.0117281
0.139848
0.139993
0.0747069
0.0204584
0.00395216
0.203417
0.0356547
0.0348413
0.0169472
0.110261
0.133511
0.134036
0.113974
0.0146818
0.144105
0.139798
0.0279125
0.140116
0.141469
0.0136828
0.13994
0.141114
0.0320236
0.0364132
0.140549
0.140567
0.0269265
0.0362126
0.143019
0.0111242
0.0630589
0.140456
0.294755
0.267618
0.140147
0.0857787
0.0484105
0.00968984
0.0428444
0.0551327
0.0110793
0.0761454
0.0221649
0.0018184
0.0123782
0.0793141
0.00356195
0.00552554
0.00544242
0.00295874
0.00404221
0.169963
0.293825
0.312202
0.244057
0.145182
0.00332646
0.016244
0.0193124
0.0950014
0.443795
0.0166709
0.0122366
0.0925207
0.0994659
0.0184644
0.00825364
0.0427992
0.0153649
0.0128119
0.0593307
0.0133912
0.139928
0.00955028
0.227471
0.29699
0.00798342
0.00914261
0.0143771
0.00724513
0.0189273
0.140478
0.00993062
0.140369
0.139491
0.0480363
0.0118377
0.0106294
0.0240609
0.0271946
0.141085
0.0206623
0.0286037
0.108596
0.0865038
0.00179389
0.0612169
0.0485732
0.0337629
0.0659975
0.0199884
0.141054
0.072422
0.141058
0.0273081
0.00350296
0.00540305
0.00564048
0.145111
0.150857
0.00104162
0.153172
0.0250485
0.0388347
0.0298251
0.0304433
0.00554051
0.0383217
0.0564724
0.140536
0.140236
0.0155255
0.0108787
0.0477072
0.00402836
0.139782
0.139731
0.0160001
0.0298313
0.139906
0.0069005
0.0211588
0.0110707
0.0177503
0.010849
0.0107272
0.00218276
0.14326
0.0384318
0.00871066
0.0594249
0.0648083
0.0657968
0.0260203
0.130893
0.0024416
0.144927
0.141823
0.143298
0.151586
0.155571
0.0798313
0.00110758
0.137063
0.12765
0.137834
0.0127254
0.00814619
0.186248
0.00247218
0.0124151
0.0019894
0.161225
0.00179849
0.146603
0.0714979
0.0602676
0.0139369
0.0578035
0.0202686
0.00395136
0.022056
0.0271646
0.108084
0.0175245
0.0041125
0.00251024
0.0162871
0.143597
0.117359
0.00283233
0.020839
0.00738628
0.0118231
0.0102496
0.0421058
0.0119225
0.0474619
0.0199806
0.0215099
0.0227432
0.0204224
0.00313313
0.0392996
0.00757955
0.166295
0.0163566
0.121601
0.0135449
0.116223
0.15941
0.0924913
0.138665
0.13997
0.0756013
0.132981
0.0119025
0.00640684
0.143905
0.0124301
0.0835441
0.133014
0.287129
0.0013511
0.0168562
0.131598
0.0564646
0.0271844
0.0235419
0.18801
0.0796914
0.0178276
0.0138804
0.0461576
0.0605231
0.0961683
0.0539092
0.0421106
0.0231176
0.0284651
0.0613047
0.0499457
0.130295
0.0563583
0.130145
0.146887
0.133334
0.144683
0.137183
0.143861
0.00854977
0.306906
0.132348
0.180093
0.148523
0.403124
0.270607
0.229355
0.126774
0.217055
0.0316818
0.334235
0.140515
0.0253531
0.0781124
0.00668216
0.132056
0.00713358
0.133284
0.0497576
0.0437259
0.0699592
0.00797604
0.0413758
0.112246
0.143075
0.143655
0.111918
0.347812
0.41356
0.338816
0.399187
0.00596167
0.0137646
0.0161508
0.133692
0.0149788
0.0416457
0.0508751
0.135766
0.010384
0.0113161
0.0123187
0.00402203
0.00647537
0.0172602
0.016826
0.00973372
0.023814
0.0813625
0.0949932
0.0640614
0.0817009
0.00923158
0.00732478
0.00731605
0.0651255
0.0117273
0.0298159
0.0062097
0.293082
0.00304539
0.0299718
0.0798934
0.0343822
0.0400443
0.139039
0.0141486
0.024348
0.00397145
0.142144
0.140812
0.00556709
0.00424662
0.0306181
0.0116647
0.0210071
0.0767779
0.0438331
0.00209618
0.00836955
0.00211155
0.00612026
0.00596087
0.0170931
0.0636769
0.00157179
0.0774633
0.137097
0.0360365
0.087262
0.137408
0.0119411
0.008824
0.0203539
0.116699
0.0114295
0.0177353
0.140066
0.0520396
0.00745556
0.00269376
0.00698882
0.0298221
0.0704214
0.0136386
0.0308979
0.0671597
0.0221411
0.0193902
0.018597
0.0158793
0.00448875
0.0770909
0.0106794
0.162716
0.0385961
0.0141922
0.121953
0.00256961
0.00523981
0.00526766
0.00788795
0.0489072
0.185002
0.0175659
0.128492
0.12597
0.0910942
0.0254893
0.0158372
0.140985
0.0101599
0.0110879
0.141082
0.00238611
0.136435
0.137991
0.0100717
0.13866
0.0308968
0.137932
0.11751
0.122043
0.141373
0.142024
0.00496266
0.135575
0.243452
0.32334
0.129319
0.258787
0.115253
0.121251
0.0114071
0.0118615
0.00592742
0.0057755
0.0108052
0.103804
0.0944664
0.00910773
0.0333686
0.0858234
0.00480768
0.014677
0.0296052
0.0969806
0.104526
0.022557
0.154609
0.0261183
0.0323773
0.00883299
0.00639561
0.00682267
0.0999949
0.0318791
0.0429849
0.00931252
0.0105219
0.00694028
0.170755
0.00303507
0.092982
0.0949558
0.031782
0.0507346
0.0774277
0.0868178
0.00507509
0.0456329
0.0679555
0.0401421
0.0091448
0.0056352
0.0246936
0.075374
0.00589742
0.121074
0.151422
0.114016
0.177636
0.143036
0.131276
0.136768
0.198825
0.00391834
0.141191
0.0584366
0.00362035
0.0605556
0.0028705
0.0125539
0.0154411
0.0170262
0.0769451
0.0665167
0.115271
0.140733
0.0450046
0.0176744
0.101663
0.103616
0.0914686
0.123177
0.0177706
0.126777
0.11804
0.124299
0.00937312
0.140423
0.00469893
0.140456
0.0939229
0.0052716
0.00443164
0.0502658
0.132072
0.00557939
0.13106
0.0197752
0.0479149
0.0437695
0.127279
0.00267319
0.112207
0.038529
0.142005
0.00572273
0.11184
0.00817568
0.00453599
0.149693
0.0311134
0.140588
0.0283818
0.108827
0.00189133
0.0311457
0.135643
0.0835402
0.00570217
0.14334
0.00815448
0.0938544
0.135554
0.008069
0.0140442
0.0229955
0.0205003
0.0208025
0.05822
0.0600606
0.00835073
0.0128602
0.0528817
0.101364
0.00671958
0.143419
0.139895
0.00682893
0.121939
0.00388101
0.00250108
0.0151733
0.00754416
0.0143256
0.0104755
0.0157843
0.0062889
0.00841805
0.0100514
0.0107014
0.00905752
0.124645
0.0116184
0.0107787
0.134212
0.0540872
0.140292
0.135177
0.123608
0.123898
0.00642068
0.161257
0.0956349
0.219317
0.154548
0.0701312
0.00815748
0.03597
0.0464885
0.00144166
0.00926259
0.0717385
0.00945962
0.109938
0.00736111
0.139758
0.0501507
0.0580532
0.0606006
0.140739
0.14081
0.0444083
0.0367453
0.00750926
0.0241038
0.0140427
0.139718
0.130935
0.0280626
0.00957864
0.132125
0.161064
0.131403
0.00119788
0.00468515
0.015101
0.152337
0.0127266
0.00824888
0.160612
0.160571
0.159219
0.16205
0.0103537
0.00893827
0.0272331
0.028845
0.0255063
0.0865012
0.122069
0.0312286
0.0901464
0.00915567
0.0668413
0.14455
0.012587
0.0293062
0.0334805
0.141348
0.146357
0.139891
0.00374439
0.140585
0.0842852
0.00263485
0.0183261
0.0319172
0.0107991
0.0072585
0.0109699
0.00544742
0.141037
0.0477979
0.0557686
0.0106692
0.0228876
0.0316411
0.019244
0.0121754
0.0119151
0.0139061
0.0120686
0.0177038
0.0285719
0.00998209
0.00564124
0.0183077
0.0123556
0.158518
0.153791
0.143663
0.267257
0.00826504
0.00834119
0.0107179
0.142058
0.0145044
0.0458876
0.00310677
0.207088
0.140451
0.140502
0.0723853
0.0743422
0.0135221
0.151593
0.146614
0.147907
0.0353834
0.139834
0.00276627
0.0107453
0.00629537
0.0588495
0.0836192
0.118076
0.163629
0.0721446
0.00198646
0.141167
0.104806
0.0125162
0.00274335
0.00527199
0.00297741
0.00364585
0.00247123
0.134702
0.0190787
0.0198254
0.141585
0.133944
0.138836
0.0264283
0.0360482
0.0331506
0.118276
0.139975
0.0987872
0.108475
0.0816582
0.0450483
0.0101608
0.0126258
0.126298
0.0390588
0.0127578
0.00549606
0.129545
0.0175798
0.14093
0.0237799
0.0182226
0.0023938
0.0210737
0.0992666
0.115084
0.130689
0.101091
0.118671
0.0716968
0.0799776
0.0216091
0.0772332
0.0821388
0.113278
0.0158649
0.0320178
0.0359579
0.0181664
0.00345508
0.00286295
0.00287044
0.0873237
0.00122271
0.00847662
0.0340577
0.13595
0.0140081
0.0183592
0.0248815
0.0227967
0.0302024
0.0290905
0.0680556
0.0168877
0.0187054
0.0560546
0.0652307
0.218265
0.0921944
0.0923765
0.0162641
0.00235189
0.00160575
0.0334584
0.0046842
0.0428518
0.0014569
0.0110891
0.0097323
0.0589633
0.000990805
0.0732601
0.190553
0.108208
0.139491
0.0218518
0.00115136
0.0106388
0.184401
0.167227
0.0258418
0.072151
0.0244895
0.0182407
0.0152682
0.0103348
0.104304
0.0050092
0.00421887
0.00797731
0.00740429
0.0260033
0.0262282
0.0238998
0.00589359
0.00257869
0.102189
0.00448189
0.129354
0.0232407
0.00812265
0.0183936
0.151762
0.00388319
0.0505822
0.00635449
0.0441669
0.135193
0.00168461
0.219518
0.258082
0.00356302
0.00200779
0.138921
0.141074
0.141423
0.141105
0.140459
0.00592304
0.135394
0.287806
0.222616
0.13612
0.00403799
0.00219573
0.134547
0.0988735
0.140075
0.140415
0.214944
0.184805
0.00552161
0.00642231
0.00302989
0.0116275
0.00403659
0.0046958
0.00556268
0.0026807
0.140896
0.140857
0.0139607
0.0141313
0.0293824
0.00333211
0.00583018
0.0104924
0.0281176
0.000965035
0.0740031
0.00266923
0.0147376
0.00783274
0.00853991
0.0556828
0.0204893
0.0630161
0.0751942
0.0300177
0.00381134
0.00596057
0.00488549
0.035592
0.00653747
0.00445718
0.00173703
0.0474564
0.133967
0.0512917
0.221931
0.00830745
0.00730466
0.0278137
0.0499616
0.00223905
0.1238
0.00500509
0.126731
0.118273
0.00283706
0.0054145
0.0141378
0.0485785
0.117603
0.0101629
0.0131389
0.134341
0.136072
0.112861
0.00659939
0.0875015
0.00440635
0.0119919
0.0135484
0.193178
0.2613
0.00136859
0.0141626
0.0132166
0.0411686
0.019914
0.00345672
0.0127106
0.107095
0.0141329
0.114421
0.0121103
0.0348944
0.00573184
0.0192574
0.00757507
0.13765
0.0480163
0.149532
0.137671
0.137017
0.00362107
0.0155
0.0133334
0.0716515
0.0156818
0.0186925
0.0869527
0.0760153
0.00843796
0.00803741
0.0131091
0.0200168
0.00423896
0.0722859
0.00247236
0.00270447
0.00666247
0.00401215
0.137166
0.138386
0.141875
0.138955
0.141796
0.00418304
0.00732647
0.0124041
0.00472444
0.143831
0.004665
0.156087
0.004953
0.0104443
0.0012831
0.0121354
0.00605649
0.00128703
0.00501141
0.00261671
0.00156174
0.0059313
0.0857711
0.0746901
0.0666968
0.0483187
0.0472413
0.112393
0.112019
0.0125976
0.00672988
0.0137439
0.0424025
0.146223
0.089214
0.0128948
0.0012938
0.0120722
0.145523
0.00517079
0.00481139
0.0691963
0.138416
0.00304221
0.0015392
0.00330097
0.0956417
0.00141505
0.139617
0.134945
0.0397018
0.145955
0.145663
0.00274794
0.000786374
0.0452192
0.0202937
0.00268815
0.0257464
0.00665057
0.0703022
0.145621
0.00187496
0.0461223
0.0339361
0.0854095
0.0318098
0.0152053
0.00808895
0.0147554
0.0111217
0.00859248
0.0094678
0.0228414
0.0374114
0.0410303
0.138439
0.0349048
0.0653384
0.0184565
0.139972
0.0235327
0.0134669
0.0222259
0.016753
0.15616
0.0118262
0.0139374
0.0310974
0.0420052
0.144676
0.0189197
0.0885953
0.0178079
0.0894563
0.0156523
0.140656
0.141095
0.140682
0.0521827
0.00930579
0.0191159
0.0880925
0.0262442
0.00790583
0.0231097
0.031914
0.000964594
0.0382454
0.0194979
0.0471657
0.0130029
0.0505895
0.0429477
0.34573
0.0148871
0.055651
0.0339675
0.00454844
0.0466914
0.0743014
0.0131977
0.0273573
0.0131807
0.0451736
0.0146025
0.0298739
0.00692476
0.00395826
0.0337703
0.0146046
0.00919198
0.0340508
0.039852
0.0209096
0.0400289
0.0547044
0.130605
0.0118571
0.00221876
0.00292926
0.157389
0.0107831
0.0168551
0.0127883
0.0737826
0.12846
0.0108565
0.0246911
0.0103509
0.00481307
0.11139
0.0886442
0.140134
0.109851
0.0176717
0.00694663
0.0211033
0.00785514
0.123275
0.0161471
0.0932104
0.138398
0.0180007
0.139587
0.0066445
0.119803
0.014881
0.0360751
0.0167356
0.00362128
0.00635045
0.0232878
0.0064434
0.0281585
0.139385
0.0120125
0.00865389
0.00267674
0.0244306
0.095795
0.00262709
0.0460391
0.0442249
0.0150053
0.0678016
0.00496217
0.00950173
0.00800626
0.00493957
0.0289654
0.0229992
0.116751
0.0290126
0.0285689
0.0141511
0.0126633
0.00446908
0.0281406
0.0101768
0.00693622
0.00185977
0.037153
0.0149422
0.00790238
0.130003
0.136666
0.0129175
0.00665895
0.00831364
0.0133268
0.108299
0.0147005
0.0139372
0.0146996
0.00119582
0.130871
0.00154598
0.0771569
0.00533224
0.116043
0.00915956
0.01064
0.00367544
0.00123685
0.107254
0.0944176
0.0320806
0.0036039
0.00847413
0.00594649
0.00155581
0.00471751
0.00266896
0.00215679
0.00609254
0.00355228
0.00487332
0.00536217
0.0996392
0.0922258
0.00102721
0.119725
0.142694
0.120326
0.0208297
0.00280536
0.00521362
0.0242319
0.0185396
0.123822
0.0194521
0.150501
0.0248926
0.0200784
0.0135382
0.00194745
0.0319504
0.0377599
0.0317887
0.0188054
0.0171457
0.0188596
0.00644642
0.00137846
0.0271745
0.0533279
0.0333677
0.0144321
0.0167344
0.00846407
0.0324005
0.139562
0.00130796
0.00186966
0.00361981
0.140032
0.0124749
0.0196348
0.000967916
0.00854651
0.00196937
0.0367842
0.00173221
0.0174235
0.0170177
0.0683143
0.0135168
0.00260543
0.00118876
0.0280955
0.0108976
0.0899912
0.0295009
0.021611
0.0246918
0.00459697
0.0206201
0.0204292
0.0323297
0.0365723
0.00128265
0.00365591
0.0170313
0.00217632
0.00402417
0.0421703
0.0257085
0.00217721
0.0160263
0.0168042
0.137239
0.00766473
0.00936604
0.0304642
0.0112744
0.0113067
0.00477419
0.037654
0.00423953
0.0444676
0.00826048
0.00814573
0.024655
0.0229985
0.0319688
0.00105684
0.0569806
0.0262693
0.221744
0.0279195
0.0286074
0.218665
0.126379
0.0602381
0.0100809
0.00141471
0.104582
0.0742034
0.0961418
0.00156787
0.0161231
0.0164411
0.0149025
0.073728
0.0465166
0.00187225
0.139215
0.0153738
0.00116198
0.00272915
0.0147205
0.0716537
0.0241388
0.0233828
0.0112337
0.128921
0.0121805
0.0224287
0.0100314
0.0202634
0.0111703
0.0236436
0.00604977
0.00252759
0.0203047
0.057936
0.00915772
0.019091
0.00698012
0.00186211
0.0172576
0.0269598
0.0239405
0.0107179
0.0167173
0.0348545
0.0330541
0.00878109
0.0362828
0.0530763
0.0224192
0.000910243
0.0154619
0.0304649
0.111387
0.0107064
0.107146
0.100092
0.0944971
0.277791
0.014319
0.272991
0.350307
0.00151537
0.0328158
0.0047534
0.0195301
0.0018213
0.00579198
0.00867842
0.140813
0.00770826
0.0099329
0.00549887
0.0502728
0.0252594
0.0120128
0.00381833
0.0251606
0.0341993
0.255719
0.0545817
0.0274188
0.0253605
0.0301279
0.0461065
0.0304748
0.0493505
0.116667
0.0466202
0.113639
0.0538074
0.0086072
0.01231
0.0101419
0.0188839
0.0112812
0.0134141
0.0396442
0.0246044
0.13526
0.00248241
0.0821461
0.00843517
0.00607206
0.00866284
0.0585997
0.00939055
0.082962
0.00163998
0.0584072
0.0309907
0.0553153
0.0835042
0.0281961
0.0361912
0.0106964
0.0401895
0.0359776
0.0925461
0.0131761
0.0148881
0.0065549
0.00985586
0.0155404
0.00971148
0.13219
0.00197075
0.00143873
0.00603631
0.0153268
0.0388764
0.00419482
0.0737873
0.00381949
0.020245
0.00222306
0.00505677
0.0912509
0.0139409
0.00140744
0.0122709
0.00491632
0.0291225
0.0109384
0.0209297
0.00481733
0.00216611
0.00101873
0.0146673
0.00587454
0.000979622
0.00129406
0.00915236
0.00836551
0.140493
0.140221
0.140435
0.0258612
0.00209501
0.00621211
0.0119382
0.00301978
0.0332457
0.0308325
0.00616423
0.00947936
0.0563088
0.00974125
0.010962
0.0250841
0.0236546
0.137949
0.0144392
0.0501487
0.0230938
0.0292408
0.00191234
0.0380609
0.00480528
0.00237165
0.00183657
0.00344307
0.00243157
0.00183281
0.0191939
0.00408975
0.0314672
0.0284206
0.0256672
0.0276355
0.0267466
0.0127571
0.0238627
0.00827517
0.038886
0.00807904
0.116225
0.190368
0.00651991
0.119689
0.00111557
0.00530108
0.0245206
0.042749
0.00970256
0.0385602
0.0323523
0.00587341
0.00806813
0.130072
0.0103876
0.0260658
0.0257989
0.057297
0.0077851
0.0284661
0.00349911
0.0272148
0.00239559
0.141117
0.00491353
0.00254479
0.0166645
0.0104791
0.00169624
0.00544261
0.00714119
0.141122
0.141328
0.0027284
0.00266883
0.135956
0.0152969
0.122202
0.00397232
0.0104151
0.0126597
0.00182775
0.0368533
0.0131713
0.0201979
0.0154094
0.0128937
0.0152367
0.0146956
0.0045091
0.00342758
0.0195171
0.016011
0.0178902
0.0203657
0.0130973
0.0147768
0.0157241
0.00260503
0.00382854
0.0045389
0.11949
0.11736
0.00331619
0.118292
0.00473682
0.00492891
0.00108846
0.0221368
0.0185845
0.0225103
0.011028
0.0123422
0.0151773
0.0158312
0.00128652
0.0164429
0.00119422
0.00878925
0.0101339
0.14035
0.0016293
0.139552
0.00788837
0.006476
0.003189
0.0155894
0.00954424
0.00163153
0.0408409
0.00998719
0.00373332
0.00729504
0.00679164
0.00589306
0.013104
0.00642629
0.0143023
0.00749841
0.01433
0.0132563
0.0497985
0.0464447
0.124115
0.0169801
0.00322622
0.0296929
0.0336605
0.00861493
0.00464798
0.109514
0.111983
0.0153269
0.00203104
0.0106786
0.06887
0.00465124
0.00123083
0.0102455
0.00945215
0.00117615
0.00216872
0.0195809
0.00237206
0.0186771
0.0372141
0.00250246
0.00131571
0.0414886
0.00862297
0.0675357
0.0736854
0.00998814
0.0218667
0.0216935
0.026114
0.0342499
0.0308811
0.0364626
0.103087
0.00845193
0.0225546
0.00992871
0.0301411
0.00378866
0.0116933
0.00264688
0.00270402
0.0108276
0.0038229
0.000890984
0.00258914
0.101614
0.00613828
0.00187905
0.00628705
0.00101454
0.00502304
0.00375608
0.0923708
0.00128009
0.00131616
0.0113503
0.00926086
0.0191178
0.124368
0.00829408
0.123147
0.0808418
0.128686
0.0206749
0.0108335
0.00375773
0.13528
0.000991928
0.136495
0.0822943
0.0248812
0.0158988
0.00365251
0.00105244
0.00187419
0.0221603
0.00523243
0.00166199
0.00369746
0.00182938
0.00405281
0.00110711
0.00432223
0.0057639
0.00461475
0.011536
0.0124544
0.00523735
0.0112735
0.0126897
0.0715929
0.00196449
0.0369879
0.13924
0.0174668
0.0136261
0.138411
0.00169772
0.00403256
0.0067517
0.00308481
0.00927451
)
;

boundaryField
{
    frontAndBack
    {
        type            empty;
    }
    outlet
    {
        type            freestream;
        freestreamValue uniform 0.14;
        value           nonuniform List<scalar> 7(0.127998 0.133334 0.229355 0.217055 0.41356 0.399187 0.0923765);
    }
    walls
    {
        type            fixedValue;
        value           uniform 0;
    }
    inlet
    {
        type            freestream;
        freestreamValue uniform 0.14;
        value           uniform 0.14;
    }
    airfoil
    {
        type            fixedValue;
        value           uniform 0;
    }
}


// ************************************************************************* //
