/*--------------------------------*- C++ -*----------------------------------*\
| =========                 |                                                 |
| \\      /  F ield         | OpenFOAM: The Open Source CFD Toolbox           |
|  \\    /   O peration     | Version:  2206                                  |
|   \\  /    A nd           | Website:  www.openfoam.com                      |
|    \\/     M anipulation  |                                                 |
\*---------------------------------------------------------------------------*/
FoamFile
{
    version     2.0;
    format      ascii;
    arch        "LSB;label=32;scalar=64";
    class       volScalarField;
    location    "100";
    object      p;
}
// * * * * * * * * * * * * * * * * * * * * * * * * * * * * * * * * * * * * * //

dimensions      [0 2 -2 0 0 0 0];

internalField   nonuniform List<scalar> 
2283
(
-0.650684
-0.892038
-11.2826
-11.4077
9.35679
9.76795
-4.85844
-4.56918
-18.0526
-161.92
-202.78
7.98816
-7.85426
-8.73828
10.197
0.458445
-1.41909
14.0538
-1.37842
-26.0338
-12.631
-12.7235
-1.25606
-1.29476
-1.3752
-1.72346
0.802488
-25.9305
1.17499
-16.0084
-15.9434
3.04775
3.60043
-1.46799
-1.15498
1.02382
0.799913
-1.54183
-1.48098
-2.058
-3.23196
-8.37827
-28.1661
-27.6603
-29.2087
-30.2249
-9.62531
21.1054
21.8208
-0.0536764
10.3098
-0.281207
-34.8257
-22.3298
-13.0823
-19.7236
14.3109
13.8359
-14.7442
-11.9495
14.5411
-22.4683
-20.1835
-26.125
-11.2364
-2.4801
-2.61751
-24.5503
10.1079
-21.6082
8.19193
2.13351
-8.48778
-0.846084
-4.68017
2.94263
0.414635
-0.484404
-2.49349
-2.30513
-0.440474
0.169345
-21.5946
0.49021
-21.9902
0.393812
-38.5878
-20.7178
-25.5774
-25.4514
-9.08978
-88.5968
-20.7223
-1.68908
-1.41186
0.884327
-7.27009
-17.2921
0.625713
-17.8652
-14.0361
-10.69
-2.2237
-24.637
-26.7884
-93.1673
-2.76492
-2.36198
7.81487
7.60763
-2.85051
2.28953
1.70045
2.02093
0.403233
-55.7536
10.6994
0.653712
-18.5776
-0.551839
2.97402
-19.1792
-0.561655
-0.961493
-27.3205
6.49814
-9.76946
-18.718
-10.8613
-26.6582
5.84455
7.16261
9.16443
-4.56323
5.9272
12.3647
-1.75254
-1.94698
-10.8418
4.36859
14.9714
-2.23922
-5.23837
7.96411
13.0106
-11.1622
-30.4371
-0.790825
-1.03158
-4.70584
0.793859
12.023
4.04008
3.37933
-10.2595
5.60846
-16.1439
-10.3418
7.07366
-15.8949
15.3986
-2.24048
16.2227
-33.2195
-7.30074
-29.703
-6.07692
-15.7061
-3.21123
5.47663
-28.3463
-28.0588
-12.0082
-15.788
-4.67946
4.85651
-27.4908
-26.9791
-27.0068
-10.7123
-9.42036
23.5581
24.7426
-23.9313
19.1127
19.6575
-22.8827
12.4722
10.6516
-4.50122
-9.11754
1.17518
-2.25281
-2.82508
20.4025
18.8259
11.3516
11.1735
-22.5717
-23.1411
10.6508
10.5086
-10.456
-23.7917
-10.6802
-10.0753
-73.3685
1.07334
11.8417
20.732
-1.66186
-1.59058
-13.7488
8.68859
-11.6102
7.28761
-39.2538
7.7573
-13.6987
-14.3784
-9.95429
8.13593
-14.9787
-11.2935
8.17892
-15.733
-10.1686
-15.0346
-11.0958
-0.127846
-15.0584
7.60677
-12.5032
-23.738
-23.0181
-3.05533
-14.2991
8.34996
-16.1581
-1.56149
-8.86908
7.98665
-14.9502
-2.00698
-9.61533
7.62202
-15.0003
-15.2772
6.88736
2.81539
-1.10335
-20.4023
-20.1678
-7.92371
-19.4923
-9.24303
-21.6448
8.85945
8.06652
-38.2262
-38.0953
8.91517
11.5415
-10.0985
-89.5399
-16.295
-6.71462
-0.736032
-13.9937
-0.684531
9.71048
9.51787
11.4443
5.59436
12.2721
5.5003
-14.5631
8.8132
-39.5987
8.39219
8.41261
-48.313
-15.1373
-10.5307
-9.57297
5.45437
-22.9036
-13.1548
-13.1711
19.5584
18.887
2.37533
-23.4698
-30.214
-16.1309
7.35732
7.1613
-28.1644
-4.98066
-28.7784
-31.2569
7.26511
7.41365
-1.42407
-1.45039
-1.16326
-0.904779
12.7486
-9.03256
-10.1968
-0.482074
-2.24557
-0.940653
5.40099
4.31291
17.7072
16.8055
-21.6561
-1.90709
5.71016
12.8711
-11.3236
-2.06481
-11.271
11.0694
11.1286
10.7578
10.6171
-20.3463
-12.6039
-17.101
17.2806
17.9285
9.91266
-1.47403
-1.63347
10.2009
-19.4619
4.35743
-11.0616
-4.91408
3.25336
-57.4465
-64.667
3.75917
-10.5063
-12.6304
-17.94
-14.6944
-21.6597
6.05351
-42.1022
12.3214
-4.26769
-1.28913
11.9694
4.6314
8.46888
8.83089
8.37122
8.58559
11.3574
-45.8307
-43.5127
-3.82806
-9.81046
14.7091
-21.7451
-73.0335
11.3302
11.5584
-28.283
-3.32268
-28.4559
-18.8114
1.44516
-3.10909
-55.6986
-64.9667
-81.4303
-17.0087
2.54925
-1.13423
-0.361182
-0.263451
-26.4977
-1.35813
-15.5702
-15.0019
9.8736
9.69366
11.805
-9.77911
-18.8124
-27.5949
-9.91498
-26.9189
-18.378
-76.5515
7.11788
29.4955
12.8722
12.6823
13.1324
28.2097
13.4632
4.80929
-11.6135
-11.1106
-11.4571
-22.0493
-17.834
19.1284
5.82471
11.0211
11.1979
-2.32434
10.5309
10.175
-10.0903
17.0448
22.1726
4.61828
-1.45726
28.9993
-1.30854
-1.02767
-1.00301
16.7314
11.3691
-1.16582
7.21442
6.50492
10.9631
2.50717
-1.39196
-1.49587
-1.47565
8.58687
-20.2096
5.20588
-2.53329
-1.1571
8.04017
1.21617
7.24743
9.23209
-11.984
-9.87788
5.49843
-11.8813
9.34143
5.8972
11.9972
-1.22336
17.7619
5.45027
14.3589
-1.41916
-2.01096
-1.68787
19.5036
-22.1763
0.357625
9.54718
13.2628
-15.9279
-1.33621
-0.532458
0.221838
-1.26653
-22.0042
-29.7505
-1.23756
1.92288
0.807038
2.18899
1.93247
2.64496
5.71958
-15.4273
-5.30866
-0.743542
5.18238
-1.51692
-1.60055
-15.8115
3.19129
-4.44513
23.5765
0.458585
0.863149
0.366686
0.59996
-1.41772
-1.27276
-16.9791
-1.11002
10.3829
-1.33356
-17.0797
-13.4546
-1.77975
-1.61628
-13.3819
-13.9501
-32.772
-1.85113
-1.61368
-1.69746
4.12273
-1.30562
-1.68377
-1.81569
-2.21793
0.0764957
-0.0318215
-33.3904
-25.9025
-23.8074
-23.8097
-26.05
-1.07734
-1.10858
0.301574
-1.68395
-0.763152
-1.99487
-2.75724
-2.7527
-1.78956
4.50638
-10.3265
4.85284
2.8401
-2.56704
-2.3427
-2.29416
0.612589
-2.59007
-38.1572
-35.517
-15.8696
-20.33
-14.3746
5.26288
-10.9798
-1.93224
0.503344
-0.0422068
0.23955
-1.44017
0.355199
0.335766
-0.0290461
0.438687
0.249833
-0.967414
-0.0762254
-1.52644
9.7192
-12.3158
-12.5378
7.37501
-12.8747
-12.5358
7.46605
-1.92114
-0.950561
-1.21642
-1.57901
0.519293
1.42675
8.53368
-0.818986
10.0263
4.15446
-4.29995
13.2906
-3.08353
-2.7919
2.2031
-1.51393
8.21291
13.3985
-4.55227
4.04096
-1.75539
-3.10221
-3.85539
11.0097
-3.27733
-1.06974
10.9838
4.45774
0.596599
0.496499
-1.6206
0.843188
-2.60811
-3.1162
1.99761
1.53707
14.7026
-4.40759
-2.01201
25.8341
-2.44341
-0.70238
1.38827
-15.3375
14.8885
-14.9993
25.503
5.54871
-1.33276
-0.863578
-1.13538
-1.22466
-0.130076
3.4185
-1.16021
-1.15422
-0.871543
0.36294
0.100029
-19.9641
-1.22792
-1.61309
-1.18686
-12.821
-20.8929
-11.7187
-3.12802
-6.27791
15.297
-1.41685
-1.22152
-12.7893
4.77107
1.99879
-2.79964
-19.8505
12.0465
15.803
-5.62959
1.33172
0.99617
-10.252
5.39066
0.0319365
-2.58478
3.67143
-1.48875
-1.75249
-9.60801
-2.18691
-1.29884
-7.97239
14.025
-1.38772
-1.11781
-13.7384
-21.7626
-1.58646
-16.072
14.1307
-2.39454
-2.633
-0.565338
0.195351
-17.7281
-1.105
-15.2839
-1.3905
-0.755781
-15.4092
-0.366568
-14.961
-10.4992
-16.2337
-15.8483
14.8989
12.5233
16.9206
8.22349
-42.6762
-0.960202
-0.764019
-1.63617
1.06394
-2.26841
14.1066
-15.3924
-14.9864
-0.866676
-3.08607
-15.1381
15.6416
-13.22
-12.0311
-11.5658
7.41052
-13.2328
13.6697
14.0776
14.3128
21.805
1.17675
14.1476
0.908114
5.6687
-10.693
8.16075
13.4106
-10.6491
-11.9632
-1.14378
7.78861
-1.31755
-0.209296
-11.9438
-14.1669
-14.1838
-16.7578
-16.842
-0.496617
-17.2012
3.14265
-1.32758
-1.19394
-40.4504
-12.0108
-12.6887
-13.4902
-12.3308
-11.6246
-0.510667
-11.8811
-0.593566
-0.193019
23.0074
23.9994
-21.7134
0.189239
-0.0502258
-11.5384
-0.363539
-2.19394
2.08242
-39.0688
-36.8287
-22.252
-13.0012
-6.26488
-1.45643
-1.3529
4.67722
13.8238
-7.28934
-10.155
-1.18636
-1.116
3.09724
-13.3068
-0.927181
-22.1013
-38.838
3.96872
-13.2604
2.36473
-30.0505
-16.8801
-0.887047
17.7932
14.0598
10.1982
10.1309
10.5935
-36.0661
1.87074
3.90223
-1.00926
-0.939239
-0.576846
-2.11019
-2.17382
-17.8204
-17.1106
-0.582655
2.66599
-0.293327
-29.396
4.1749
1.32176
-10.0567
5.07998
-9.89739
-0.177214
-13.0314
-0.323842
-23.0248
-27.8474
-30.0791
-29.8924
3.49746
-46.7457
0.546314
-22.3508
-3.3437
3.56545
-48.419
-46.399
-19.4403
-2.77434
-3.44734
10.6365
-1.08714
10.6403
19.6827
10.7488
15.6389
-35.5337
15.3804
11.7766
11.586
12.1268
12.1146
-109.856
-22.7233
0.378352
-2.08043
-10.2736
1.46836
-10.8914
1.15602
-3.54262
-1.43018
1.21779
0.8873
-1.18271
0.785443
16.9811
0.224284
-1.91958
4.87394
10.2736
-0.00900968
-2.77597
-9.56955
-37.7197
-0.492129
9.69484
-0.922115
-31.7086
-0.621557
-2.60504
-35.3716
19.8587
-18.7987
-11.2251
-2.95768
-12.797
-13.9747
18.518
18.1918
-17.0668
-19.4557
-2.00137
-18.7339
-2.83249
0.126349
-0.0952794
-2.88839
-2.65606
-3.00755
-24.6839
-1.58991
-1.40722
-1.27105
-0.611556
-2.73063
-2.3136
-1.00285
-2.75654
-0.941398
-43.8144
-2.73004
-2.08115
-44.6243
-14.0423
11.2379
-4.06867
-27.2041
-4.18389
-2.84565
-1.39267
11.8844
-33.2335
-1.83411
1.2351
8.53839
9.83929
1.59986
-2.22626
-3.55722
-1.93089
-3.70928
8.78881
12.7559
-11.7455
-3.13665
-11.5031
-16.8052
-21.7852
-3.33999
-40.7312
12.8469
-40.5134
19.9181
22.4154
12.1548
12.5166
-43.1086
-5.26674
-1.18808
-1.13874
8.38427
-1.18514
-32.6364
-33.5526
-10.3412
8.99138
-19.879
20.2034
-10.7304
-2.36419
-5.32546
19.9215
-5.96647
19.0809
18.086
-2.84004
-40.2382
6.24924
14.3354
0.504249
0.79609
14.2508
-10.2005
13.5022
21.881
6.02345
11.4592
11.2263
-14.1397
14.1536
-9.43183
32.6242
16.9884
6.35656
8.93298
-8.89252
11.7589
-1.71039
3.0565
10.5361
-3.12366
6.72801
6.36006
-0.621649
-0.176433
6.46893
-39.1479
-1.39661
-10.6153
-3.0036
-5.10142
6.7347
-24.4998
8.83426
-42.8199
-23.3947
-14.6215
-14.394
-14.3847
-0.895308
-43.1238
-11.6648
8.21066
-48.042
-1.09452
-17.6474
-46.4046
-6.21552
1.53054
-14.8027
-14.8814
-22.6647
3.03835
0.313435
6.66702
-4.87342
-5.03914
-9.81538
-8.19189
-19.0552
0.332497
-10.6928
-9.88138
0.0210626
5.81248
-3.85371
-3.24388
-9.68668
-3.06807
11.3748
-3.30663
-8.9826
-7.78351
-2.98279
-2.68048
-28.168
1.84536
1.25593
6.08241
0.42351
1.0133
0.434256
0.206517
-22.1245
-22.3723
-28.1546
-11.4764
-34.7866
-2.39275
-2.40775
-35.577
-4.23252
-10.6912
-23.0592
6.85912
15.7528
7.55456
7.35302
16.32
-0.561571
16.2475
17.8111
-22.6861
-22.5397
-11.8516
-5.65139
18.4278
-32.9864
-13.765
-13.6018
3.29578
-0.86377
-1.84963
-6.24791
-7.37147
-21.6587
13.7598
-10.8902
-11.7167
2.94057
-17.874
-18.2586
-18.3161
-11.7668
-10.2328
-57.3986
-3.08587
16.8226
-2.35199
-1.42221
-2.65928
-1.7935
-2.34828
-2.12178
-1.971
-2.86436
16.0762
-0.665711
6.1193
7.00232
6.63114
1.47117
12.1314
12.1047
11.782
-2.48678
-8.20941
-1.48232
-1.27544
3.85426
7.49524
4.70266
5.42549
-11.9628
2.81295
7.24632
2.93844
4.04158
3.61634
11.2823
-0.945285
7.50412
-1.10323
-3.10775
-36.0071
13.1337
4.86913
2.76137
-35.3641
-5.30457
-21.6458
-11.2859
4.28189
-2.66219
10.4605
-8.70991
5.56602
-1.7821
5.78493
-7.94486
6.25046
6.33049
0.124584
7.1873
-1.21149
5.50707
-9.22431
2.64693
6.53133
-3.73343
-3.92579
-20.1216
-1.95052
-19.4011
4.75712
1.37721
-20.1745
-7.60773
13.3148
13.3181
15.9945
-24.5164
-28.8146
-25.8407
25.8334
-36.1216
-1.11942
-48.212
0.209674
-0.733265
-8.34347
-1.11171
-50.4861
-25.1058
-14.9568
-49.2321
17.1435
16.853
-72.8645
-51.5635
-17.6324
-18.2956
-26.2615
-26.8725
-1.89479
-26.9294
-27.4048
-1.36236
11.7948
-1.43404
-1.83609
-0.42934
-0.0742034
-25.6429
-2.58099
5.64344
-1.22229
-2.27936
9.33097
-26.6815
16.5307
12.8728
-24.9433
7.08048
-16.1001
7.14898
-0.6787
7.03562
-1.11448
7.33471
-16.4329
-15.2834
-1.57244
-1.39678
-28.1097
-29.697
-41.8588
-12.5982
-7.22827
-1.52232
2.55727
-15.7972
16.6828
2.06069
-2.46478
-1.43568
-16.506
-10.1819
-67.7681
-2.70852
-88.8654
-83.0498
0.870039
1.25387
0.935412
1.29123
-24.2416
-24.448
-15.3485
6.92553
6.94658
-1.19335
-1.54469
-48.3782
-1.38406
-6.33611
10.4497
-0.966242
-17.4958
-15.0734
-17.8473
1.00253
0.935021
-1.14557
6.30462
-1.50178
-1.20827
4.92388
-54.2057
-15.886
-17.8315
-10.3956
-23.848
-10.5743
-2.12428
7.80031
7.2897
24.5071
-7.67886
-6.03507
-5.25516
-73.463
9.93975
9.68642
-13.7411
9.78003
6.15051
-17.2584
-10.5535
-8.33683
-21.9301
-2.05026
-0.788118
-0.848467
-2.69171
13.9726
12.1436
14.201
-2.28506
-18.8623
6.97435
24.3534
-1.68972
-2.03418
-1.81057
10.1806
10.5639
-57.9058
-1.33966
-1.69833
-2.98443
6.68575
-1.1511
-13.8765
-13.8698
-3.21761
13.8161
9.35952
-0.463789
-2.8494
11.1664
-14.7547
-0.767141
-1.55527
3.32319
-19.264
-38.6946
-37.4113
5.39502
4.93922
-4.04626
10.1255
9.86095
-2.88935
-3.78966
-0.354618
13.0214
-14.2562
-13.9076
-6.62882
-0.406443
-14.2844
-1.26403
-1.21778
6.50163
8.97701
9.05388
-5.8105
6.37315
-12.4627
3.19334
-5.46112
14.1571
-0.735206
14.1654
14.4033
3.74898
14.4752
-1.03312
-0.964067
-4.99992
-13.2101
-4.8459
-0.993817
-1.14344
19.5561
-1.13477
-1.20047
-5.06258
22.3182
12.1219
11.9348
-12.6903
-18.9051
-19.0634
-11.0991
-8.81358
-12.3533
-34.6441
-1.07144
-0.205236
-18.8956
-12.5791
7.38801
7.65455
7.69333
7.37234
7.82877
20.356
15.1324
8.07877
7.44283
-1.755
-0.457765
-0.212983
16.7378
-49.5045
-8.90695
5.0445
-110.873
13.2172
-12.6453
-33.6244
-33.2572
7.65242
-9.70603
-1.37812
-2.58448
-7.68074
-2.05152
15.9011
-9.39383
14.2827
-0.830795
-0.10684
20.912
12.2876
15.5028
16.0556
-8.33633
11.6681
6.30735
-14.0289
-13.9419
-13.9684
-12.4281
13.6262
13.7639
-6.70318
-28.8694
-44.716
-8.13401
-68.5945
3.3181
6.61724
-10.4077
-26.2247
-2.86254
-55.583
6.10978
-10.7154
12.7464
-2.76732
-10.2598
-2.09849
-3.60298
-10.4611
-55.9494
-3.18259
-0.651935
-0.397384
-0.235501
-0.0358704
6.97995
2.06331
-0.250593
-0.458202
1.73143
11.1627
-15.1266
1.7418
-9.43227
-1.242
-1.33371
-4.45292
-2.9269
11.1324
-15.2369
-32.8971
-24.1024
-16.8796
-10.7542
21.7737
11.5076
-0.875147
-1.12248
14.3646
-21.6738
12.9935
21.1253
19.3942
20.4403
-58.2613
-14.9859
0.800245
-97.4838
18.0539
-9.72541
-9.94321
15.021
18.7203
13.4334
7.57409
4.54614
5.24085
5.5359
5.05039
-19.049
-10.136
-10.3258
-2.94047
-16.3991
-4.5095
2.35963
-2.72499
-14.8327
-83.2896
1.06973
0.0215573
-0.246864
-3.56809
-29.8954
-3.68789
4.22677
0.307981
-25.0561
-25.5864
16.3456
5.12254
23.2513
22.1255
-4.36974
-3.92897
6.51333
-14.2844
-17.7201
-20.3148
-10.98
-17.9447
-0.329833
-0.825871
-35.9083
7.56042
-18.5271
18.0258
7.69326
-13.5517
-18.1155
5.53473
-10.4547
4.98123
-10.6675
18.791
7.33226
-12.9141
12.1425
-3.42576
8.69625
-1.34961
-3.54599
-1.20059
-13.6867
-14.6026
7.81659
-16.6725
8.00499
8.00325
-18.5021
-20.8841
5.81616
-17.5813
-11.8398
-12.3447
11.7856
12.8304
-21.4757
12.1964
-32.9956
4.21113
-1.32723
-1.32373
-1.91349
-3.03667
-1.75141
4.94916
-16.905
-11.4292
-17.3431
-2.02271
-21.1366
-2.28524
-13.71
21.6613
-29.2432
20.6637
-12.1793
-13.6369
-20.7639
-33.9919
-32.6999
-20.8637
1.99415
6.45225
6.97494
13.7738
14.2766
6.03995
6.41857
-31.337
-17.6172
-31.6311
15.1487
-1.77219
1.33131
-33.6188
-20.838
-15.4125
-1.68848
7.03591
7.18093
1.2831
0.167115
-33.8285
-34.407
-12.9143
-15.2745
-11.3155
-1.32125
-0.236965
-11.2268
-1.74928
-1.56839
-11.8478
-11.265
-10.4643
6.82623
-10.3346
-34.3578
-13.6504
2.6647
-0.482972
-12.6264
2.61247
-16.7784
-13.0059
-17.2962
-16.0513
-13.2883
4.20944
-37.029
-36.3073
-37.4123
4.49614
12.1904
12.2202
-2.24058
12.6705
-10.5862
-21.034
0.526421
9.03101
-14.8356
9.29952
9.19258
-1.08542
-20.5201
9.24605
16.9104
17.0068
-1.08985
9.41213
-13.4229
-16.5974
4.17181
-11.9489
-1.21499
-0.984947
-1.1796
-0.495747
-13.0957
3.94992
3.5035
-25.1484
-14.3208
-24.5012
10.5175
-13.2704
9.88258
15.3922
9.82681
-24.3103
10.108
10.2647
-3.86309
-16.251
3.00042
9.04859
-27.6559
-14.1459
-1.00685
-13.8155
8.94512
-13.4412
11.7906
-13.7703
9.1638
5.11341
-12.2128
15.6639
-13.5607
-14.3867
16.0476
10.9421
8.1091
11.3946
14.8792
-3.99157
-14.4337
-28.0029
-21.925
-1.61943
-14.4928
-11.8669
5.99699
5.74622
-4.55235
-20.4787
20.2475
-12.6698
-27.273
-0.55327
-0.796275
-0.598287
-0.452432
8.9976
-12.9908
8.8436
-31.2111
-3.92175
25.1375
-1.13235
-0.939315
10.7976
-0.870371
-15.364
-3.0284
7.13644
10.9281
-20.2665
16.6584
21.1663
9.8438
-21.5878
9.39702
-1.12585
19.1572
-21.5846
18.7448
9.49969
-0.382946
-22.3549
17.0692
17.017
-14.4909
11.3283
7.02738
-20.7094
-46.6745
-15.4715
10.6985
11.018
-8.53744
-11.8368
15.3938
16.0574
21.6872
-16.7688
19.7172
-13.3906
-11.0411
-15.4275
18.0319
-23.4183
-13.8429
-1.60252
-1.86618
-22.8806
-12.5539
-20.3955
-23.4567
-10.757
-20.3883
6.28635
-24.3187
-8.92396
1.267
-22.195
0.308147
6.83552
5.80935
-49.5162
12.2649
-14.5006
-15.989
0.911346
0.401438
11.1276
-15.0299
-31.5819
-33.61
-16.8236
-18.3852
-26.2329
-29.5895
-18.9565
-217.6
-15.08
-19.1724
-0.823909
-1.02888
-13.2179
-0.713053
-1.97371
-1.31066
14.7164
-18.971
6.68201
14.6756
-10.082
-1.05735
-15.8331
-1.03315
-11.7593
11.1687
13.2357
-18.0462
12.7352
13.5858
14.9953
-32.4997
-31.2521
-30.2589
-15.8066
-26.4936
10.1092
-11.4335
9.62643
-15.2876
-24.2421
-13.1385
-47.9594
-2.77457
-14.1415
-11.1046
-10.5329
-2.89083
-12.1357
11.3942
-10.2983
5.22289
-10.1907
14.7131
-0.300857
-14.2426
-13.9134
-13.5526
-15.1994
-39.9769
-14.5781
17.432
-11.5455
-14.5114
14.1834
10.3598
10.3301
-12.9719
20.4777
10.6565
12.5774
2.49282
-13.9447
2.81615
-15.7863
-14.1759
-13.0673
17.2185
1.17414
-13.0071
-37.1005
2.75944
1.26756
-28.5766
-23.2477
16.7942
-28.0638
14.5903
5.41615
16.0495
-42.5296
-36.2647
-16.4412
-23.0006
11.4656
21.1441
14.3146
-11.3672
-20.6157
8.56997
-2.11159
8.27216
8.6852
-1.70585
-5.51979
-19.1719
-16.2525
-20.1091
-0.642918
-0.871559
-0.696705
-26.4036
13.2957
13.3253
14.7395
-10.1707
-21.5199
-11.4536
1.01234
15.1696
-11.1753
3.89138
11.4382
-18.804
-13.1686
15.262
11.4671
-0.980307
-12.8794
-12.9028
3.5902
7.12894
-13.5684
7.1645
-59.5103
-18.6057
21.5592
-0.350303
15.1937
16.6925
-35.4369
-37.2042
-17.9306
8.07589
8.03593
-13.3239
-18.5646
-8.73702
4.22501
4.48209
11.7018
-13.6299
-15.5678
-12.0367
-26.6646
12.0457
-9.47039
-22.7415
6.76376
7.69151
8.22742
0.291484
8.32444
-0.350051
4.88638
-24.2246
11.6433
-13.2556
12.5556
-33.3469
-20.0905
9.35095
-0.921714
10.2669
-30.328
11.7867
11.8075
-41.6237
9.08289
12.1819
12.593
-32.0606
-2.48155
10.8113
12.6721
12.2825
13.853
-37.0811
12.3738
-28.0976
3.07268
-30.3042
3.86443
-31.8748
-12.9251
-16.733
-16.6836
17.2971
-19.4661
-10.2952
-43.8047
-10.3657
-0.97355
-25.8925
-14.3992
-37.7494
11.935
-38.094
9.21845
-40.2769
-15.904
-18.26
8.47932
-16.4232
9.11329
-17.6574
-33.5714
-34.4563
-17.3309
-22.8068
-22.7188
-15.9472
-23.0434
-22.7044
-13.9934
-24.6462
-21.0752
-25.7524
-4.74776
4.60338
-20.0477
15.1447
-49.6758
-16.2872
-16.6367
-2.08112
-16.5125
-48.7312
-17.0489
-26.1355
-1.85983
-15.9917
-12.9192
-21.0449
-13.2364
-9.40293
-11.5167
-41.8447
-24.7164
-24.8791
-17.2115
5.84181
-24.2382
-13.4163
-24.3411
-14.5418
-15.1329
-1.26372
-0.971655
-1.18249
-52.3661
-49.9476
-13.3098
-13.6933
9.35955
-11.371
-10.8744
-13.1337
-13.6889
-14.9612
-18.1728
-18.3417
-11.0288
-10.6952
-0.62657
-20.7744
-15.4701
-11.4514
-12.1661
-10.1891
15.1789
-20.2593
-64.196
-16.9377
-17.4463
-20.3454
2.57579
-9.30906
-76.5538
-12.4774
-12.9753
11.7643
12.1136
11.5544
-11.1449
-16.2562
-58.6702
-32.2432
-12.9212
1.90098
-1.52139
-60.0965
-7.86056
-42.698
8.01755
-22.8724
-24.5092
2.77813
-24.2989
-25.2706
9.77104
-10.1828
2.94627
-32.1763
-14.6728
-14.2953
-28.0332
-11.8089
-14.1384
-13.2319
-17.4419
-45.3958
-0.581629
-4.19644
-6.959
-25.1915
-12.0615
-21.5198
-39.3416
-38.2752
-0.297438
-0.262821
-40.861
-19.4266
-3.89468
-35.1946
-5.75126
8.19569
-15.9952
-16.0585
-40.2685
-12.4312
-16.575
-52.7506
-13.8247
-28.2139
-28.1682
-17.0881
5.39528
5.4638
20.3094
-17.2372
20.901
21.0836
-10.1287
-10.1866
-16.3996
-25.8359
-11.531
-11.398
-7.36511
-7.21404
-11.6447
-6.40465
-14.1165
-19.5381
-26.4709
13.6765
13.8407
-12.3222
-16.7291
-16.7393
-12.5105
-13.0146
-15.2378
-12.6258
-22.4344
-19.2125
-18.9198
0.463352
-18.5529
0.716464
-23.8506
-19.2107
4.71324
-17.7908
-19.7689
-11.5672
-26.1562
-24.1244
-14.4263
-11.008
-35.231
-33.6431
-14.1576
4.85721
-13.8566
-16.6421
-14.4008
-14.2029
9.19054
9.47744
-4.89994
-10.648
5.31752
-9.98261
-10.3455
-16.6696
5.1078
-10.4748
-9.61432
-11.0785
-10.7684
-58.3567
-16.2344
-23.8545
-10.3662
-11.224
-11.7907
-26.5379
5.52943
-20.1298
-23.6837
-13.6836
-39.2703
-16.8948
-17.0233
-11.8401
-23.1089
-21.8265
-21.2428
-29.4505
-13.5137
12.9279
-19.7594
-14.7904
-19.1479
-15.3181
-12.6616
-30.1216
-19.4359
-45.6869
-18.3912
-11.7949
-15.9562
-34.9524
-37.3415
-51.5471
-86.1078
-11.4432
-83.7657
-9.8394
-11.7483
-13.7489
-25.4682
-15.1835
-10.1847
-17.6552
9.78222
-36.4964
-39.5374
-20.7526
-20.2037
-25.1475
-6.63006
-11.2602
-6.83158
-19.3655
-6.04072
-20.5899
-43.5937
-11.051
2.12251
-10.1788
1.818
8.74559
-32.688
-13.4106
-10.4581
-11.1116
-13.9724
-35.0909
-16.9582
-24.2005
-13.4059
-13.6075
-14.5471
-13.0167
-12.8257
-23.4627
-30.2309
-21.7128
-15.0808
-16.9892
-14.6282
-14.9479
-14.9632
-13.2215
-6.89298
1.0688
-22.4257
-12.328
1.43177
-11.3527
5.25966
-14.5775
-11.4418
-52.6331
)
;

boundaryField
{
    frontAndBack
    {
        type            empty;
    }
    outlet
    {
        type            freestreamPressure;
        freestreamValue uniform 0;
        value           nonuniform List<scalar> 7(-5.33785e-06 -2.54217e-06 -0.000105812 -8.9904e-05 -0.000523725 -0.000513177 -4.90593e-09);
    }
    walls
    {
        type            zeroGradient;
    }
    inlet
    {
        type            freestreamPressure;
        freestreamValue uniform 0;
        value           nonuniform List<scalar> 7(-1.03158 -1.13538 -0.496617 -0.927181 -2.08115 8.53839 9.83929);
    }
    airfoil
    {
        type            zeroGradient;
    }
}


// ************************************************************************* //
