/*--------------------------------*- C++ -*----------------------------------*\
| =========                 |                                                 |
| \\      /  F ield         | OpenFOAM: The Open Source CFD Toolbox           |
|  \\    /   O peration     | Version:  2206                                  |
|   \\  /    A nd           | Website:  www.openfoam.com                      |
|    \\/     M anipulation  |                                                 |
\*---------------------------------------------------------------------------*/
FoamFile
{
    version     2.0;
    format      ascii;
    arch        "LSB;label=32;scalar=64";
    class       surfaceScalarField;
    location    "100";
    object      phi;
}
// * * * * * * * * * * * * * * * * * * * * * * * * * * * * * * * * * * * * * //

dimensions      [0 3 -1 0 0 0 0];

oriented        oriented;

internalField   nonuniform List<scalar> 
3327
(
-0.0860791
2.08601
-1.99993
1.80785
-1.89393
-0.0081717
0.00111648
0.00705518
-0.00189486
-0.00627685
-0.0215448
0.00449562
0.0170491
-0.0168478
-0.00469698
-0.334644
0.438679
-0.104034
0.110781
-0.445425
0.00464164
-0.00464167
0.0175737
-0.00367137
-0.0139019
0.0175738
0.100521
-0.107611
0.00709084
-0.00284157
0.0182716
-0.0154298
0.0696874
0.0436071
-0.113295
0.0396167
0.0609038
0.059026
-0.251714
0.192688
0.218204
-0.159178
0.00117776
0.023079
-0.0242568
-1.52556
-0.513756
2.03932
-0.0084136
0.00789831
0.000515249
-0.0131846
0.0175181
-0.00433355
0.00576254
-0.0189471
0.366942
-2.40721
2.04027
-1.8588
2.22574
0.208437
-2.19326
1.98482
-2.16502
2.37346
0.385191
-0.665144
0.279953
-0.0420449
0.0185158
0.023529
0.367217
0.0179738
-0.0044336
0.000262749
0.00417085
-0.00443359
0.213665
0.177488
-0.391153
-0.12256
0.336225
1.33354
-2.07836
0.744822
-0.707602
2.04114
0.20738
0.289716
-0.497096
-0.335639
0.543019
-0.785166
-0.191921
0.977087
0.560845
-1.34601
-1.73248
1.92156
-0.189083
-1.73248
-0.0444518
0.114139
0.0117303
-0.0113351
-0.000395227
-0.00135378
0.0130841
-0.00104117
0.037827
-0.0367859
0.025556
-0.0265972
-0.025213
0.0104629
0.01475
0.0142966
0.0058425
-0.0201391
-0.00468204
0.0189786
0.926061
-0.849528
-0.0765357
-0.00869584
-0.0100214
0.0187172
1.44826
-0.522204
-0.014132
0.0141318
0.0259222
-0.00532505
-0.0205972
0.107736
0.0367137
-0.144449
-0.0169206
0.0127653
0.00415528
0.0195522
-0.0183745
0.00590555
0.041405
-0.0473106
-0.00284124
0.139537
-0.0318015
-0.0193353
0.0252408
-0.109007
0.114566
-0.00555834
-0.00524383
-0.0116767
0.0112232
-0.0484381
0.0372148
0.00343264
-0.0034326
-0.124405
2.39108
-2.26668
-2.4092
2.2848
0.057832
-0.0466089
0.0024585
-0.0193063
0.0121416
-0.000669327
-0.0114722
0.0305465
-0.00907895
-0.0214676
-0.00774243
0.0197794
-0.0120369
-0.0632751
-0.0700581
0.133333
1.80785
0.015385
-0.238377
0.222992
-0.0184352
0.0106927
-2.09876
0.355799
1.74296
-2.85577
0.757004
-0.195382
-0.669072
0.864454
0.975881
-1.17126
-0.411389
0.747127
-0.335739
0.0516685
-0.463057
0.0187894
0.0071328
0.0217909
-0.00201141
0.00441293
-0.0044129
0.0154658
0.00632515
0.00529002
0.00811383
-0.0134038
0.0125815
0.0204998
-0.0330813
0.00507626
-0.0140792
0.00900289
-0.012567
0.0176433
-0.0755063
0.0310544
-0.0169648
0.0139019
0.00306322
0.031371
-0.750047
-0.3697
1.11975
-0.682676
-0.0673723
-0.0849084
0.618204
-0.533296
0.120398
-0.183673
-0.00369948
-0.00704699
0.0107464
1.24492
-1.32983
-0.00771282
0.00401332
-0.177838
0.00475031
0.173088
-0.0574407
0.596285
1.38288
-1.97917
0.0178292
-0.0106723
-0.00715689
-0.00367826
-0.00110765
0.00478585
-0.0169648
2.04619
-1.44991
-0.221419
-1.14165
1.36307
0.0105229
-0.0104522
-7.07854e-05
0.0105229
0.891634
-1.11305
-0.226019
-0.0806312
0.30665
0.141198
-0.150207
-0.0808806
0.231087
0.145493
0.0928143
-0.238308
-0.0169648
-0.0396045
0.0578767
-0.111949
1.57271
-1.46076
0.00928845
-0.00385282
-0.00543562
0.23469
-0.0891968
-0.098226
-0.0519807
0.0150089
-0.00270132
-0.0123075
0.252733
0.382495
-0.635228
-0.205399
0.458132
-0.00367828
-0.040149
0.000544866
-0.0717737
-0.00373275
0.011341
0.00366787
-0.000193797
0.0200915
-0.0198978
-0.00365468
0.0198732
-0.0162186
-0.00245641
0.0303787
-0.0279222
0.0104522
-0.00881203
-0.00164014
0.158878
-0.263764
0.104885
0.0325381
-0.0349945
0.0148904
-0.00602515
-0.00886527
-1.08031
0.71061
-0.255168
-0.825143
0.0105406
-0.0107345
0.0131169
0.0175022
-0.0306182
0.0175426
-0.0368779
-0.103079
0.0372793
0.0658009
0.0855458
-0.0724296
0.0308631
-0.0339485
0.00308539
0.0103992
0.0310058
0.00459711
-0.00348065
-0.0326383
0.0445198
-0.0118815
-1.79002
-1.06575
0.785892
0.20029
-0.149001
-0.0512893
0.121492
1.12343
-0.05337
0.0637692
0.178868
-0.131428
-0.0474398
0.238828
-0.0599598
-0.0130096
0.00630783
0.00670182
0.00119984
0.0158591
-0.017059
-0.000495103
0.00728264
-0.00678754
-0.0101709
0.0125207
-0.00234954
-0.0255932
-0.00203967
0.0276329
0.00275424
-0.00863926
0.00588502
-0.0195835
-0.00912674
0.0287102
2.0825
-0.22791
-1.85459
-0.0341061
0.0145226
0.0117601
0.0138279
-0.0255881
-0.312431
0.384242
-0.0718107
0.026021
-0.000464926
-0.278933
-0.0334983
0.0104027
-0.0076485
0.159155
0.426167
-0.585323
0.0628454
-0.00683087
-0.0560144
0.00461147
-0.000316653
-0.00429491
0.00461144
-0.00730812
0.00174446
0.00556396
-0.00913435
0.0336558
0.391625
-0.425282
-0.014132
0.0290337
0.00879333
-0.0130112
-0.00166703
-0.00674661
-0.00522861
-0.00764656
0.0128751
0.0443032
-0.0283324
-0.0159711
0.0166043
-0.017408
0.00080352
-0.0134274
0.0093725
0.004055
0.00719832
-0.00148033
-0.00571795
-0.0050171
-0.0142325
0.0192495
0.00882908
-0.0138462
0.00719835
0.0166042
0.0159955
-0.00605484
-0.00994064
-0.0134273
-0.0133701
-0.00205945
0.0154297
-0.916264
0.171109
0.745154
0.122618
0.0955865
0.215675
0.004382
-0.0178551
0.0134731
-0.0164106
0.0207926
-0.025277
-0.0131824
0.0384594
-0.0448154
0.0195384
-0.0300663
0.0247413
-0.0230596
-0.00700673
-0.010653
0.0225207
-0.0118677
-0.0319763
0.0213233
0.00224619
-0.00747486
-0.0115448
-0.0115148
-0.0133701
-0.0346145
0.0323665
0.00224817
0.0276929
-0.0313642
-0.025642
-0.00897265
-0.00720183
-0.0376136
0.018018
0.0149565
-0.0329744
-0.840373
0.667672
0.1727
-0.906849
0.0664757
-0.00730805
0.00277427
0.0188088
-0.0215831
0.00263218
0.0140749
-0.0167071
-0.035107
0.00951387
-0.00643006
0.0103442
-0.00391407
-0.00424389
-0.00321793
-0.0270013
0.0302193
0.00556401
-0.00556396
-0.00730792
-0.0760857
0.0196725
0.0564132
0.00284124
-0.00846278
0.00562196
-0.0103068
0.012939
-0.0187576
0.00496947
0.0137881
0.000843209
-0.00417085
0.00332764
0.00106131
-0.0112322
-0.00772489
-0.000124966
0.00784985
-0.000508539
0.00756369
0.0976136
0.257643
-0.355257
0.0032407
-0.0109656
0.00881203
-0.00881203
0.000201695
0.00623722
-0.00643895
0.0144441
-0.0259889
0.0348522
-0.0204082
0.0255399
-0.0511817
0.00531989
-0.00315328
-0.00216662
-0.1319
0.00919023
0.12271
0.291421
-0.193807
0.138877
-0.032281
-0.106596
-0.0195309
0.015287
0.00531989
0.132242
-0.0241515
-0.0905705
-0.0413299
-0.00841514
0.00829017
-0.0126554
0.00424027
-0.0290703
-0.0555854
0.0846557
-0.0965034
-0.103851
0.200355
1.73247
0.332998
-2.06547
-0.000882047
-0.0040596
0.00494162
0.00410071
0.000501812
-0.0046025
0.182484
0.0041007
-0.0111741
0.0426663
-0.0314926
-0.00846279
-0.0777514
0.00166566
-0.131605
0.0410345
0.011529
-0.0150783
0.00354933
0.0168191
-0.059857
-0.0178944
-0.0145026
0.00373849
0.0107642
0.00573998
-0.00349377
0.00739994
-0.00739979
-0.0180926
0.0310668
-0.0129742
0.0486358
0.133848
-0.704706
-0.247373
0.952078
0.00224083
-0.0111853
0.00894442
-1.08833
0.383622
-0.0976112
0.0377542
0.0446341
-0.0429684
0.00795753
-0.0613275
0.0186678
-0.0174679
-0.0354084
0.0282066
-0.031945
0.0284704
0.00347457
-0.00455709
0.00679792
0.0311743
-0.0206569
-0.0105173
-0.0184957
-0.0275261
0.0460217
-0.0139742
0.0126717
0.0013025
0.0320364
-0.0505321
0.00801597
-0.01608
0.00806399
0.00573998
-0.0149356
-0.00921588
0.0381646
-0.133812
0.095647
0.0347271
0.0231049
-0.0134916
0.00305624
0.0104353
-0.0154368
0.00194519
0.0200943
-0.0194481
-0.000646153
0.0058618
0.154593
0.0432896
-0.197883
0.0413168
-0.00658964
-0.00675031
0.0052494
0.00150092
-0.00384831
-0.000585276
0.011481
-0.000958056
0.0114809
-0.00289467
-0.00844043
-0.0276992
-0.0753789
0.00919598
-0.0120906
0.00120655
-0.00795689
-0.0160212
0.00753133
0.00848985
-0.00252447
-0.0134967
-0.34768
-0.334996
-0.602847
0.420767
-0.48814
-0.667561
-0.0379216
0.00251316
0.0448563
-0.000553324
-0.0209812
0.0379092
-0.016928
0.054153
0.180536
-1.30978
0.16813
0.2869
-0.232747
0.0942205
-0.0560559
0.0432256
-0.0785263
0.0353009
0.0187506
-0.0114241
-0.00732651
-0.00799926
0.0176656
-0.00966635
-0.02949
0.0525949
0.0547446
-1.36453
-0.0320363
9.13428e-05
-0.00462328
0.0163118
-0.0116885
0.00713825
0.0233619
-0.0305002
2.03882
-1.87069
0.0212131
-0.00493484
0.0145823
-0.00964745
0.00879046
-0.0137253
0.00796783
-0.0157079
0.0077401
-0.0088328
0.0168006
0.0498189
-0.0793089
-0.00423275
0.00423271
-0.0366425
-0.0136578
0.0503002
0.0107513
0.0158985
0.00964612
-0.0255447
-0.0123863
-0.0111891
0.0235754
-0.766728
1.08618
-0.319453
-1.55651
0.789785
-0.0199288
0.0075425
-0.00612043
0.0188857
-0.112263
0.0598977
0.0523655
0.0297699
-0.00640801
0.296118
-0.262463
-0.131696
0.03347
-0.00483872
-0.00214007
0.00697878
-0.00483873
0.080748
-0.0375224
0.00878869
-0.00328664
0.00348834
-0.014713
0.0248543
-0.0101414
-0.00328665
0.0121015
4.00455e-05
-0.0120725
0.0144457
-0.00237323
-0.0130498
0.0134019
-0.000352111
-0.00497199
0.0331786
0.454996
-0.940058
-0.675895
1.61595
-0.0122456
0.0159418
-0.00369625
0.0423299
-0.0180462
0.00172133
0.0163249
-0.00444296
-0.0136033
-0.0182495
0.0199708
-0.0190918
0.000842265
-0.000972131
-0.0112735
0.0152112
-0.00131093
-0.0139003
0.00216148
0.53646
-0.575863
0.0394024
0.00957688
-0.034496
0.00747003
0.027026
0.0110012
0.00110034
0.0164158
-0.0168067
0.000390911
0.0136899
-0.0146621
0.0136899
-0.0130098
0.0319394
-0.0189297
0.581531
-0.045072
0.00766932
0.0224222
-0.0300916
0.298059
-0.65024
0.352181
0.623789
-0.0422585
0.0114468
-0.0133448
0.00189799
0.00403341
0.0123824
0.00299437
-0.0198011
0.0134273
0.000704561
0.0364716
0.202356
1.94895
-1.342
-0.606946
0.0930449
1.60449
-1.69753
1.32632
-1.23328
-0.00520369
0.0237194
1.17565
-1.18544
0.00979765
0.0143545
-0.0392977
0.0249432
0.0572247
-0.0428703
0.0119187
0.00993725
-0.0218559
0.0209649
-0.00904623
0.00209344
0.0159246
-0.0378434
-0.0754516
-0.0144308
0.0221001
0.0231101
0.00882933
-0.0324274
0.0320459
0.00038142
0.0179064
0.0343968
-0.0119746
-0.0268617
0.029856
-0.0114252
0.0104671
-0.0110096
0.0110096
-0.0014915
-0.0145548
0.0160462
-0.0233169
0.0218254
-0.0243487
0.00979395
0.0141968
-0.0141968
-0.017653
-0.00669572
-0.0866115
0.0080853
-0.00183229
0.0116022
-0.00976992
0.00804788
-0.00988019
-0.0105098
0.00861494
0.0196839
-0.0167995
0.00678954
0.01001
-0.101001
-0.0328106
-0.0046649
0.0202794
-0.0156145
0.0109814
-0.0156463
1.03063
0.0130283
0.0084822
-0.0215105
0.0261793
-0.013151
0.000292565
0.00653967
-0.00683231
-0.016001
-0.00700867
0.0230096
0.00489094
-0.0152286
0.0103377
0.0766705
-0.210666
0.133995
0.556937
0.00318718
-2.38702
-0.0201937
0.845277
1.19499
-0.29253
-1.82477
2.1173
0.0081677
-0.0241687
0.0148249
-0.0319018
0.0170769
-1.83887
1.54634
0.110399
-0.0122444
-0.0981546
-0.130071
-0.0171514
0.445106
-0.267618
1.47387
-1.53112
0.057251
0.533812
0.217924
-1.74905
0.00545957
-0.0194337
0.027515
0.00385598
-0.185034
0.235967
-0.0509337
-2.57266
1.86506
0.40622
1.63492
-0.013298
0.273749
-0.00592938
-0.267819
0.00603181
-0.0266887
-0.000947594
0.0059769
-0.0050293
0.003242
-0.00294957
-0.046349
-0.0402625
0.00254076
-0.00348834
0.020561
-0.0145291
-0.199708
0.153513
0.0461943
0.0241098
-0.0220163
0.0396959
1.26121
-1.3009
0.0100325
0.0140773
-0.00270968
0.0185688
0.0118592
-0.0121653
0.000306072
-0.467636
-1.37123
1.44775
-1.91539
2.19829
-0.750532
-0.00782267
0.00606513
-0.000645857
-0.00541922
-0.413253
-0.453947
0.8672
-0.0149902
-0.0116985
-0.0088379
0.0186318
0.00479656
-0.00754539
0.00274883
1.46679
-1.69134
0.22455
1.17878
0.269479
0.800812
-1.21407
-0.0103028
1.95925
0.00606515
0.00195875
-0.0208885
-1.48855
1.47825
-0.34591
-0.0301835
0.376093
-0.47725
0.766966
-0.0302744
-0.315636
-0.307067
0.276883
-0.270595
0.0115687
-0.0115687
0.00563976
2.78282
-2.2848
-0.498025
-1.9188
1.9188
0.864017
0.894259
0.273213
-1.61521
-0.0245334
-0.0377179
0.0622515
0.18632
-0.0188103
0.0141282
-0.89053
0.244356
0.646173
-0.1177
-0.77283
-0.983802
1.22816
-1.09575
1.44886
-0.0160962
0.0129191
0.00317713
-0.852357
-1.53466
0.00729963
0.095559
-0.0133615
0.0216715
-0.00831011
-0.00906076
0.0598248
-0.050764
-1.08743
0.864219
0.223213
-0.110345
0.0197327
-0.0166765
0.0454437
-0.0545045
0.0421786
-0.0118205
-0.0303581
0.733121
1.55046
-2.28358
1.70917
0.489119
2.44229
0.307593
-0.230923
-0.0888306
0.37573
1.60424
-0.360338
-1.2439
1.28479
0.146763
1.13802
-1.12345
0.273925
-1.00153
0.924991
0.00954026
0.0619768
-0.061641
-0.000335893
0.0153679
0.022288
-0.088529
0.0662409
-0.039353
0.714566
-1.39046
-1.02518
1.73974
-0.0650744
-0.60007
-0.359415
0.270584
2.03545
-0.179057
-0.180358
0.0568642
0.816035
-0.872898
0.944492
-0.887628
2.03074
0.00459708
-0.17205
-0.0276578
-0.177245
0.00519535
1.01538
-0.0708919
-0.0757859
1.09117
-1.09679
1.02101
-0.910832
-0.418997
-0.280759
0.0244872
0.0131526
-0.0376399
0.0340275
0.0775983
0.027474
-0.105072
0.0195709
0.0326201
-0.052191
0.114312
0.0344035
-0.0059331
-0.135073
0.0236259
0.111447
-2.2666
1.0227
-1.2163
-0.814799
2.0311
0.11002
-2.04868
1.05586
-1.85393
0.798074
-0.611814
1.66767
-1.4817
0.869883
1.25507
0.317645
-0.226631
1.53629
0.197087
-1.73337
-2.00611
-0.0425763
0.0896537
-0.0804634
-0.0123709
-0.00193588
0.0143067
-0.0113031
-0.00106779
-0.0134513
0.0128428
0.000608488
-0.000228327
-0.0110748
-0.00891249
0.00868414
-0.0159757
-1.84897
-0.288822
2.1378
-2.66153
0.995611
1.66592
0.734104
-2.58308
-1.92742
-1.12089
1.98491
-0.0595421
0.336425
0.0222613
-0.00345246
0.318581
1.31494
-1.63352
-0.0135581
0.0160167
-0.247853
0.0371873
0.570417
1.97475
-2.54516
-0.00691582
-1.92156
1.96643
-0.0448758
1.38305
-1.98999
0.0027304
0.0255921
-1.96643
2.52337
-0.0963951
-2.08052
2.04643
0.0340862
-2.08052
0.00273562
1.87102
-1.45647
-0.414553
1.87102
0.0168483
-0.0141127
-0.00217458
0.78969
-1.66727
2.45696
-1.66727
-1.75522
1.4664
-1.75522
0.428151
-0.458426
0.455106
-0.0269553
0.00362656
-0.0206168
0.0169903
2.15733
-1.58691
2.76593
0.00956574
0.00144381
2.16024
-0.60978
1.11469
1.04555
-0.0419899
0.00138687
0.00425289
0.015258
-0.0116315
0.00471452
-0.00332764
0.00956574
-0.0171307
0.014421
2.24155
-2.26174
0.163185
0.780944
1.78913
0.460788
1.07158
-1.53237
-1.55498
-0.230579
-0.0172739
1.95588
-0.884296
-0.125648
2.21165
-0.47728
-0.0372265
0.0229278
0.0142986
0.136959
-2.30198
-1.82787
1.96484
1.5901
0.0624599
-0.0823712
0.0199112
-0.0176556
-0.270797
0.0733864
0.197411
-2.04619
-0.0343232
0.362256
-0.170306
-0.191951
-0.0214169
0.00725443
0.0141625
0.699591
-2.55839
1.7206
0.505141
0.0803216
-0.0178617
0.00675335
0.0276502
-0.00909907
-0.00615799
0.0152572
1.89393
-2.27913
0.385191
0.0434277
-0.0163922
-0.00101559
0.0054068
-0.0166834
0.0112766
0.0997934
0.59495
-0.621906
-0.122896
-0.147902
0.0221423
2.33054
-0.634565
-0.214971
0.849535
0.0497507
-0.00427732
-0.0454735
2.44255
2.21196
0.23059
-0.0261097
-0.625476
-0.00908944
1.55165
0.0384483
0.00325517
-0.0715003
0.0682446
0.0203497
-0.000797494
1.10912
-0.548271
1.95787
0.0208478
-0.0240657
0.0188263
-0.0364819
0.99853
-0.104272
0.00373812
0.00824813
-0.0119862
0.0490014
-0.0191997
-0.0298019
-0.884043
-1.6125
2.41057
-1.6125
-1.15219
0.698243
-0.104257
0.593022
-0.403211
-0.189811
0.00364031
0.00676244
0.258026
-0.230114
-0.0090151
0.517013
0.018587
-0.0318429
0.0132558
0.00100393
-0.00449778
0.00349377
0.0140531
-0.0103149
0.01678
0.0709745
-0.0877546
0.0157197
-0.0157197
0.0213711
-0.00565148
0.0146621
0.00670906
0.0133257
-0.0133257
-0.00719835
-0.00976634
0.764329
1.67796
1.11932
1.01848
-1.41541
-1.41541
-1.47985
-1.06531
0.0230412
-0.00227473
-0.0207664
-0.0111877
0.0297747
-1.21794
-0.369395
1.58734
-2.04643
1.43665
0.0118534
-0.0160101
-0.00446377
0.10503
-0.100567
-0.021972
-0.0085283
-0.0143096
-0.00166614
0.0203303
0.0277955
-0.0481259
-0.012507
0.01976
-0.007253
0.00287158
-0.0153786
0.0398747
-0.016449
0.0149313
0.00151769
0.0160708
-0.0131992
-1.04155
-0.691829
-0.0117326
0.004086
0.0176412
0.0062544
0.0135056
-0.00119198
0.0242884
-0.0205067
-0.00378165
-1.91599
1.33321
0.582783
0.00333156
-0.177412
-1.73858
-1.66378
2.44472
-0.0613529
0.0362476
0.0251052
0.0074614
-0.0143931
0.00693174
0.0110683
-0.00360689
-0.0183235
-0.0114928
0.0298163
0.00875683
-0.0270803
0.910968
0.0252174
0.344429
1.61145
-1.48034
-0.0663054
0.0875191
-0.0212137
-0.0410226
0.0169515
0.015121
-0.0320725
-0.00648056
0.00231639
-0.0939057
-0.856893
0.950798
0.073841
-1.00679
0.912881
0.123603
-0.0608059
-0.0627963
-0.0135797
0.0135796
-0.00401391
-0.0100628
-0.000460024
0.0105229
-0.463585
-0.75048
-1.69686
0.00400366
-0.00400368
-1.04216
-0.654705
0.0959035
-0.0668367
0.00603083
0.0262434
-0.0130908
0.0217683
0.00447499
0.0100228
-0.0106686
0.0447469
-0.100365
0.205857
1.92646
-0.0170556
0.023809
-0.0104193
0.0166737
0.0137734
0.000285343
0.00834327
-0.00862874
-2.65375
1.80139
-1.86786
-0.00641268
-0.0313052
0.0359688
0.703316
0.0123671
0.0130647
-0.0254318
-0.0165177
-0.00963422
0.0261519
0.0220929
-0.0259633
0.00387043
0.0267425
-0.0331551
0.00232404
-0.0120678
0.00974372
-0.00396892
-0.000884748
0.00485365
-1.96012
0.917964
-0.00233331
-0.0242653
0.0455733
-0.021308
-0.0404798
0.0162146
-0.0209414
0.0341354
0.334431
-0.193233
-1.76719
1.64154
-1.88524
0.118048
1.57055
-1.23975
-0.330798
1.05679
0.0235311
0.0740095
-0.0975406
-0.00396894
-1.66716
1.00527
0.661892
-0.488375
-0.019552
0.0218761
0.00855068
-0.0250684
0.325069
1.3426
-0.00114138
-0.00464048
0.00578198
0.0276114
-0.00546905
0.00464046
-0.00435527
-1.3065
1.63156
-0.00571792
0.00571795
-1.79487
0.0379163
0.0766494
0.0630551
-0.0251387
-0.0175933
0.0512345
-0.0355825
-0.00836022
0.00704933
0.241007
-0.122379
-0.118627
0.014255
0.107218
0.347778
0.0027108
-0.0382933
0.00836022
-0.000325791
-0.00803437
-0.0205512
0.300187
-1.18782
-0.431028
0.538245
-0.0135581
0.15181
-0.00682687
-0.0124794
-0.0184332
0.000937889
0.0174953
0.0219964
-0.00445385
0.0134877
-0.0166157
0.00312802
0.0108176
-0.0145752
0.00375761
0.0106355
0.000182099
0.0105655
0.00432493
-0.00400975
0.0488961
-0.0640573
0.0151611
0.0422085
0.00916637
0.0228505
-0.0320169
0.334104
0.0109039
-0.012919
0.00201512
-0.00153575
-2.4092
-0.872372
1.16958
-0.297212
-0.288158
-0.362082
-0.821454
-0.1811
0.461053
-0.0194525
0.01841
0.0010425
-2.30926
0.0105557
0.276819
-0.457918
-1.82787
0.00464048
-0.00700753
0.0404428
-0.0334352
-0.0784385
0.00381237
0.0417609
-0.0809374
0.00729993
-0.0338972
0.160425
-0.339482
-0.0247594
0.0224601
0.0022994
-0.00960414
-0.0413629
0.0556615
0.0589841
0.0285349
0.508203
-0.0622363
-0.00769382
-0.0404321
0.00360906
0.0156405
-0.0147517
0.0183607
-0.0550964
0.0789386
-0.0238422
-0.00874283
0.168231
-0.362038
-0.0638392
0.327386
-1.67948
0.558587
-1.77904
-0.824193
0.899171
-0.0749783
0.421094
0.191133
-0.612228
-2.27913
0.0128208
-0.011334
-0.00148678
1.96484
-0.440477
-0.408103
-2.81758
2.40947
0.209619
2.15733
0.0177328
-0.0375932
0.0198604
0.0331402
-0.0154076
-0.0834478
0.00107644
-0.00132944
0.0144281
-0.0130987
0.118727
0.30744
0.0167739
-0.0182541
-0.248881
0.367608
0.261296
-0.272901
0.0116051
0.0374738
0.0383464
-0.0758203
-0.0572264
-1.45647
1.1804
1.58691
1.43665
1.4664
0.0100806
0.00552904
-0.0156097
0.0131039
-0.0216323
-0.91797
-0.0036032
-0.0315328
-0.00599581
0.0375286
0.000295657
0.0410211
-0.440132
-0.477838
0.00404059
-0.0163818
0.0123413
-0.00603443
0.016115
-0.0110377
-0.0198033
0.0198033
-0.0188654
-0.0158157
0.0118059
-0.0102866
-0.0142203
0.142326
-0.0567798
1.33015
-0.0689363
0.267724
-1.15202
-0.0473781
0.0337764
0.0136017
1.38478
-1.11706
0.00181332
-0.017368
0.0155547
0.0119463
-0.010133
0.0204218
-0.00995886
-0.0412186
-0.00615954
-0.0119986
0.0161538
0.0202016
-0.0143591
0.00131315
0.0191087
0.00987956
-0.00987947
0.00869741
0.0115042
-0.10453
-0.00810213
-0.0291024
0.0210003
0.236118
0.613417
0.00814533
-0.0191831
0.0188262
0.00255432
-0.0213805
0.0173845
-0.0173845
0.448203
-0.373251
0.0016648
0.0025618
0.0133286
-0.0303951
0.0170664
-0.00080352
-0.0132101
0.0770905
-0.0467873
-0.00391816
0.00454076
-0.000622578
-0.0115344
0.00599457
0.00431997
0.0154833
-0.0212794
0.0080693
0.0131103
0.00599466
-0.021475
0.0687635
-0.0472886
0.517033
-0.470679
-0.0463549
-0.0416193
-0.101938
0.657212
0.0175388
-0.0086356
-0.00890319
-0.00585826
-0.011346
0.0172043
-0.179605
-0.884373
0.733825
0.150548
0.0116805
0.02121
-0.998771
0.0919218
0.0269389
-0.0647824
0.00763135
-0.0166042
-0.00763135
0.00763129
-0.0155789
0.00423289
0.0290812
-0.00511236
-0.0239689
0.0196301
-0.0608486
-0.0175429
-0.00164011
0.00867308
-0.0122104
0.0686258
-0.0564154
-0.0130612
-0.0139401
0.0167135
-0.0229252
0.00538233
0.00246193
-0.00803594
0.005574
0.0760433
-0.00401745
-0.0128413
0.0168589
-1.13361
-0.856384
-0.0383194
0.0067866
-0.0269427
-0.252908
0.0331955
0.219712
-0.00905621
0.00704486
-0.00943536
0.00487827
-0.00380103
-0.00563432
0.00968092
-0.00944676
-0.000234154
0.0867788
0.90571
-0.0100156
-0.0112638
0.0285073
-0.2244
-0.0868709
0.140139
-0.0532683
0.0481111
0.0140924
0.0182741
-0.861043
0.643016
0.218026
0.0141203
-0.0100344
0.0143173
-0.00019696
-0.00970634
-0.851337
-0.00956412
0.00956415
-0.100639
0.607922
-0.507283
0.661336
-0.761974
0.00130768
0.728777
-0.0674412
0.0212051
-0.0205722
-0.000632983
0.288645
-0.250799
0.213556
0.0372422
0.133443
-0.0824276
0.00731637
-0.00763301
-0.492444
0.411812
-0.575945
1.91854
1.83463
0.289686
1.83463
0.594687
-0.0145501
0.0138808
-0.00818826
-0.00636183
0.00692113
-0.0075838
0.000239536
0.00734424
-0.00244293
0.0159306
-0.379244
-0.0138723
0.393116
0.128959
0.0117177
-0.0141606
-0.10807
0.0492229
-0.136094
0.0064507
0.00100629
-0.00745697
-0.0186512
-0.00958094
-0.00999672
0.0195776
0.0459018
-0.124514
-0.00808464
0.0139185
-0.00583386
1.29664
0.334923
-0.0217603
-0.00416169
-0.00421792
0.00185032
-0.00943416
-0.16397
-0.00198588
0.0508818
0.0066508
0.00337462
-0.0100254
0.0109607
-0.00430993
-0.0120348
-0.00640036
0.0436797
1.25296
-0.2685
-0.107858
-0.160642
0.0424455
-0.057649
0.0152035
0.123064
-0.116183
-0.0211338
0.019019
0.0624012
0.0109487
-0.07335
-0.0193004
-0.0112915
0.0131418
0.0123736
-0.00403021
-0.00369635
0.0357327
-0.327877
0.0178831
-0.00239986
-0.0154833
-0.482114
-0.34303
0.1799
2.15064
-0.495987
2.33723
2.33723
0.556597
0.464409
-0.760371
1.31697
-0.0719772
0.0178831
0.0440037
1.27093
-0.0691425
0.0227935
0.00451367
-0.0334718
-0.0356707
0.00583583
-0.0119938
-0.00106088
0.0134796
-0.0124188
0.010745
0.0960175
-0.0958489
-0.000168323
0.0385174
0.0575002
-0.779974
-0.405467
0.556227
1.05973
-0.0791416
0.0206879
-0.00550968
-0.0151782
-0.149896
0.0184681
-0.182707
-0.092557
-0.349012
0.0333759
0.0101613
0.0105266
-0.226343
-0.122669
-0.109881
-0.174778
0.284659
-0.0154421
-0.88178
0.0957989
0.785981
0.0205123
-0.0160167
-0.87276
-0.00902073
-0.165907
-0.00961703
0.00844195
0.00117512
0.0104206
0.0100917
0.0709307
-0.058453
-0.3327
-0.00749334
-0.00212367
-0.33411
-0.0903633
0.424473
0.0252603
-0.0181275
-0.00821092
0.0104206
-0.180336
0.0257072
-0.528347
-0.642918
-0.00513185
-0.01228
0.0174118
-0.146996
0.200548
-0.0535528
0.00241997
-0.0147
0.0192212
-0.0212609
0.0244456
-0.219217
0.0722213
0.00583585
-0.0184298
0.0253679
-0.00693809
0.408331
0.00151183
0.00720534
-0.00871718
-1.59234
1.06399
0.0128306
-0.0113188
0.114115
-0.450797
0.00271468
0.0101159
0.0477685
-0.0464196
-0.0013498
0.0155268
0.00413688
-0.0196637
0.000652519
0.0148743
0.0172535
-0.00132891
0.0845905
-0.0865763
0.0790321
-0.0108177
0.00132974
0.00948797
-0.0156231
0.051506
-0.0650851
-1.08693
-0.0132276
0.0129018
-1.14076
-1.67682
1.30396
-1.59745
-0.00105555
0.00803437
-0.00697878
-0.00467619
0.00502839
-0.000352215
0.0198694
-0.0103913
-0.0028363
0.0151325
-0.0217116
0.0065791
-0.0305579
0.00224147
0.0147286
-0.0124871
-0.00059927
-0.0134799
-0.011417
1.17502
-0.0171346
-0.0184884
-0.122843
-0.317634
0.0565123
-0.0140668
0.39419
-1.00775
0.485545
0.00922804
1.23837
0.0497249
-1.28809
0.0885241
-1.96898
1.53855
0.00533933
0.0176703
-0.0046762
-0.0203741
0.0114709
-0.0290761
-0.94846
-0.00410804
2.49245
-0.0336319
-0.00437481
0.0380067
0.0652808
0.0530704
-0.00424742
-0.0441907
-0.0410334
0.00106255
0.0123394
-0.0294181
0.00183795
0.0275801
0.00839136
0.0393764
0.322437
0.0394459
-0.0226038
-0.0168421
-0.135989
-1.46766
0.724308
-1.50428
-0.00384831
0.0401844
-0.0124914
0.00962658
-0.00923218
0.0188589
0.915397
-0.793906
0.545367
-1.2372
-0.00542588
-0.00744512
0.012871
0.00739489
0.0294347
0.0100111
0.000791425
0.0161833
-0.0153919
1.09424
0.0753453
0.877805
-0.0121418
0.0630236
0.688772
-0.0166046
0.0249962
-0.0445387
-0.00101364
-0.0150826
0.0231894
0.00624528
0.033151
-0.0263644
-0.0276765
0.957782
0.0139009
0.0139009
0.028301
-0.0327422
0.0101385
0.0137149
-0.00883317
0.0101408
-0.00244001
0.0141975
-0.0117575
0.00404194
-0.305219
-0.578825
-0.0378466
0.015572
-0.0109962
0.0591064
-0.0260527
-0.082018
-0.0330538
0.0140203
-0.00253924
0.0165595
-0.0057162
-0.00780209
0.0135183
-0.0171569
0.0146176
0.00173475
0.0119802
0.0028988
-0.0195034
0.0316696
-0.00179278
0.0156736
1.53272
0.250321
-2.25025
-2.24949
0.0173079
-0.0105988
0.00607482
-0.0161844
0.00913579
0.00704856
0.0475206
0.0093725
-3.00002
-0.930695
-0.0639098
-0.0261556
0.00813864
0.0217173
2.09137
0.0206948
0.00846279
0.00535208
0.0458164
0.0898871
-0.0439854
0.256414
0.910988
-0.866985
-0.0197516
0.0224624
-0.0154297
0.00189325
-0.0083233
0.00570009
-0.00380683
0.0100594
0.00150927
0.0100594
0.718703
0.0221685
-0.0148689
0.00501163
0.240864
-0.833949
0.6737
0.160248
-0.0101304
0.0142673
0.0336331
-0.041327
0.00156063
-0.147141
-0.843655
-0.126953
0.0651966
0.0617562
-0.213086
0.0142997
0.0332209
-0.00959923
-0.00983451
-0.0140422
-0.291889
0.385084
-0.0931943
0.0164503
-0.0125831
0.00127312
-0.293162
-0.019178
0.00618947
0.0129886
-0.00110374
0.012963
-0.0104187
-0.0087593
-0.0119937
-0.0115225
-0.0919036
1.15587
-1.06396
-1.16167
1.06977
-0.0535662
0.0880865
-0.235228
0.578735
-0.94813
-1.27731
-0.0235954
0.00943084
1.26751
0.0222891
-0.0128583
-0.00182911
0.0156033
-0.0137742
-0.0206841
0.018855
0.02461
-0.0233959
-0.00121415
-0.00987956
-0.00599466
0.00926522
0.0024525
-0.0274813
0.31742
0.01631
0.00830002
-0.0161658
-0.00516055
0.0213263
0.00127519
-0.017441
0.0264214
-0.0111344
0.0542343
-0.0204579
-4.13914e-05
-0.0138048
-0.0159971
0.00842979
0.00756731
0.0309459
-0.0400249
0.00690071
0.0473335
1.84974
1.83327
-1.57686
-0.654319
0.0125391
-0.0114966
0.00578205
0.0501527
0.00834183
-0.0175738
0.0282889
-0.00269673
0.00810275
0.00782781
0.00324193
-0.399543
0.209731
1.89946
0.0302422
0.658583
0.0097741
0.00414438
-0.00343251
0.00918913
-0.0207235
2.36259
-0.15094
1.70789
0.0152542
-0.00374996
0.0074359
-0.00657785
0.0163519
-0.00492361
0.0184032
0.121518
-0.133762
0.00839716
-0.00273971
-0.00565744
-3.87419e-05
0.00843587
-0.00939574
0.00472239
0.00467334
0.00822625
-0.0101622
-0.0227661
0.0139282
-0.00980311
-0.00116123
-0.00647178
0.00414676
0.00290262
-0.00704933
-0.1304
0.0118244
-0.0077909
-0.289376
-0.00519719
0.017759
-0.00519442
0.0231008
0.00483873
0.00698563
1.96222
-0.00675804
-0.00647095
-0.0643428
-0.697632
0.414042
1.33201
0.581526
-0.570665
0.0166357
-0.0183018
0.234605
-0.502223
-1.65691
-0.0103547
-1.65691
0.586785
-0.00194869
-0.0116094
0.00391816
0.00140175
-0.183669
1.70013
-1.68437
0.300537
-0.00427717
0.00751788
-0.00431069
0.00551719
0.0103841
-0.00691707
0.0060323
-0.00766295
0.013758
-0.000178408
-0.0116094
-0.356288
-1.27723
-1.38147
-0.0196706
0.0178779
0.00850139
0.013758
-0.0051074
-0.0147115
-0.00315328
-0.218039
0.310853
0.00834186
-0.00421633
-0.0139498
0.0132461
0.000703838
-0.00764203
0.0286406
-0.0478402
-0.00353165
0.0536844
0.00233216
0.0147985
0.00261332
0.0241273
0.00249879
0.00903844
0.00704489
-0.00704486
0.0443044
0.408448
-0.498811
-0.120249
0.0393686
0.0097334
-0.00188356
-0.000942149
0.0824462
-0.201073
-0.155862
-0.01337
-0.102986
-0.00219364
0.00744306
0.172697
0.00985289
-0.000624864
0.00730621
-0.00546559
0.209884
0.0115581
-0.0357041
0.444152
-0.542988
0.0853697
0.00405822
-0.107642
0.0398756
0.0677668
0.00770716
0.0100571
-0.0184993
0.00341669
-0.0043107
-0.0190064
0.0204768
-0.00643352
-0.0226689
-0.013903
-0.00643759
0.00504119
0.00139636
0.00197746
-0.0611894
0.0192235
-0.00899398
0.015604
-0.0149955
-0.00130302
0.0110181
0.60733
-0.697811
0.0904805
-0.0319849
1.69084
0.268412
-0.0053011
-0.00113651
-0.015318
0.0082229
0.00709506
-0.0156748
0.0791812
0.00195259
-0.0176274
-0.0119505
0.0118796
-0.119522
0.01025
-0.00851529
0.0129332
-0.0165365
-0.00419674
0.00951357
0.0041763
0.00154551
0.0040596
-0.00560513
0.00951359
0.00519184
-0.0131487
-0.0162702
0.00368712
-0.676078
-0.503378
-1.22174
-0.0843938
-0.00125759
-0.0150126
0.00867035
0.00157966
0.0026264
-0.00223116
-0.00468594
2.38123
-0.00925241
0.00837034
-0.00395119
0.00899239
0.0147529
-0.00429488
-0.00120792
0.00476175
-0.00476177
-0.0077069
0.0043107
0.00120238
-0.00551307
-7.70679e-06
0.00837804
0.277581
-0.0752255
-0.0116628
0.0963185
-0.0311726
-0.00593178
-0.178035
0.127101
-0.219365
-0.0193624
0.00176899
-0.0195879
0.000225565
0.0160646
1.03375
0.00335483
-0.0123699
-0.0155332
0.0736293
-0.00475159
0.00551307
-0.00076148
-0.00475157
0.00108991
0.00447918
-0.00556911
-0.000878648
-0.00254076
0.00341942
-0.890902
-0.140498
0.0448348
0.0173217
-0.0621565
-1.74729
-0.690491
0.00509826
-0.016461
0.0191122
0.0150232
0.00390593
-0.00785714
0.0521973
1.34019
-0.00314286
-0.0257546
0.0239854
0.00176914
0.00739645
-0.0214412
0.0115314
0.00990983
-0.00936921
0.0130066
-0.0036374
0.0141748
0.000203402
-0.0113098
-0.00285083
-0.0111063
0.0241185
-0.00991965
-0.0107645
0.0119057
0.00528177
-0.0164676
0.0037051
0.0215552
0.716645
-0.018748
0.00169565
0.0170523
-0.0045514
0.0153033