/*--------------------------------*- C++ -*----------------------------------*\
| =========                 |                                                 |
| \\      /  F ield         | OpenFOAM: The Open Source CFD Toolbox           |
|  \\    /   O peration     | Version:  2206                                  |
|   \\  /    A nd           | Website:  www.openfoam.com                      |
|    \\/     M anipulation  |                                                 |
\*---------------------------------------------------------------------------*/
FoamFile
{
    version     2.0;
    format      ascii;
    arch        "LSB;label=32;scalar=64";
    class       volVectorField;
    location    "100";
    object      U;
}
// * * * * * * * * * * * * * * * * * * * * * * * * * * * * * * * * * * * * * //

dimensions      [0 1 -1 0 0 0 0];

internalField   nonuniform List<vector> 
2283
(
(10.0393 -0.019222 1.7062e-18)
(9.75961 -0.00530144 5.4765e-17)
(5.74537 -1.01432 -5.28281e-18)
(5.98843 -1.03026 5.18753e-18)
(7.62533 -1.19754 0)
(7.66058 -1.27924 0)
(9.33753 -0.0585491 0)
(9.29151 -0.011622 -1.34575e-18)
(3.60505 -0.665305 -1.98763e-18)
(18.9949 6.26268 0)
(16.7747 4.11162 3.06406e-18)
(7.89854 0.582676 -5.75729e-17)
(6.90563 0.572409 -6.38319e-18)
(9.66165 -0.934928 6.46869e-18)
(7.69459 0.437025 -1.12741e-17)
(8.81977 0.852933 0)
(9.00144 0.900917 2.06178e-18)
(7.32788 -0.544944 8.09384e-20)
(9.92576 0.00943421 0)
(7.13846 -1.20635 -5.68939e-18)
(8.41702 -1.29682 2.38928e-18)
(8.10859 -1.27854 0)
(9.04405 0.024008 4.49346e-17)
(8.99352 0.0152089 -1.07002e-16)
(9.34668 -0.0383158 0)
(10.0871 0.00903061 6.27491e-17)
(8.80891 0.293056 0)
(10.8608 -0.974255 0)
(8.74471 0.265748 0)
(5.22486 -0.90391 1.70825e-18)
(3.51369 -0.59765 -5.60547e-18)
(8.49768 0.0367519 0)
(8.44101 -0.0129507 -2.73264e-18)
(8.77299 0.0457091 -2.3736e-17)
(9.09887 0.0107455 0)
(8.67255 -0.188091 -8.12442e-18)
(8.72462 -0.232271 0)
(8.89367 0.109153 1.41023e-17)
(8.92291 0.119339 -1.95846e-17)
(9.70243 -0.0121569 -9.8643e-17)
(6.53201 -0.0611461 1.11126e-16)
(9.54112 -1.02523 -9.15069e-18)
(8.72134 -1.39041 2.06745e-18)
(9.16607 -1.42538 -3.64374e-18)
(11.1611 -0.80197 4.9272e-18)
(11.2099 -0.932741 0)
(7.25662 -1.39259 3.14682e-18)
(5.87009 0.349576 -1.54924e-18)
(5.67877 0.147157 0)
(8.76367 -0.0874948 -4.6467e-19)
(7.65226 -1.19872 3.85991e-18)
(8.81142 -0.0941862 1.52948e-19)
(9.83443 -0.41808 6.09632e-19)
(10.4709 -1.17951 2.74458e-18)
(10.2434 0.0307859 -2.49729e-18)
(9.63639 -1.4042 -4.95282e-18)
(7.28816 -0.599014 0)
(7.31902 -0.229207 0)
(3.67201 -0.666167 0)
(10.1341 -0.070241 2.6753e-17)
(7.25443 -0.298563 -8.25519e-18)
(11.058 1.33749 -1.12341e-17)
(9.70953 -1.3904 0)
(11.1607 -0.563948 1.39903e-17)
(3.52696 -0.636104 -1.74279e-18)
(9.82761 0.0775393 -9.98307e-18)
(10.0747 0.0650796 1.03721e-16)
(11.1083 -0.444938 0)
(7.49891 -1.25982 -2.10273e-18)
(8.89217 -1.39945 2.99752e-18)
(8.00503 -0.852837 -2.67764e-18)
(8.55512 -1.352 -2.65771e-19)
(9.61843 1.64068 2.66768e-17)
(6.55861 -0.0114703 3.43793e-17)
(9.30835 -0.660909 -3.13271e-17)
(8.62008 -1.30322 0)
(8.84858 0.0265693 2.42734e-18)
(8.77366 0.107191 1.2079e-18)
(8.99333 0.103172 0)
(9.02319 0.0784237 0)
(8.87496 -0.256099 1.24325e-18)
(8.90182 -0.279283 0)
(10.3998 -1.1978 -1.41833e-18)
(8.36681 -1.37342 7.99648e-20)
(3.58122 -0.819327 2.73025e-18)
(8.5326 -1.38526 1.77798e-19)
(11.4073 -1.42862 1.60608e-19)
(10.4139 -1.09396 0)
(10.0203 -1.45496 1.62155e-20)
(10.3342 -1.41375 1.87046e-18)
(9.50892 -1.1101 0)
(15.3412 8.55377 0)
(10.3616 -1.15739 0)
(8.85024 -0.203572 -1.21858e-17)
(8.73966 -0.232387 0)
(8.6885 -0.0168078 1.24831e-17)
(9.63986 1.27947 -2.0469e-17)
(7.30876 -1.26514 2.85214e-18)
(8.85599 -0.0310685 -4.04437e-17)
(6.64127 -1.17141 -4.1968e-18)
(10.3243 1.01404 -2.19207e-17)
(9.93057 1.05235 4.09065e-17)
(10.3601 -0.297801 4.53731e-17)
(9.91247 -1.41771 0)
(5.65742 -0.967573 0)
(10.0059 6.93234 0)
(9.41175 -0.0445318 -1.35305e-16)
(9.47218 -0.00466711 2.20721e-18)
(7.12198 -1.13581 0)
(4.83631 -0.77949 0)
(9.16414 0.00732034 -6.65152e-17)
(8.61553 0.243525 1.31677e-17)
(8.68594 0.296886 -1.12815e-17)
(8.66927 -0.669478 -5.17245e-18)
(8.88816 -0.512812 -4.18492e-19)
(10.0537 6.61315 3.21839e-19)
(7.24683 0.398386 1.23365e-17)
(9.46183 -0.000301065 -2.09837e-17)
(7.69566 -1.34369 0)
(8.59966 -0.420635 7.81538e-20)
(8.56973 -0.573898 -4.07876e-18)
(9.28884 -1.40795 4.32397e-18)
(8.96753 0.266992 5.57641e-19)
(9.00503 0.292402 -4.47066e-18)
(3.60892 -0.683337 -3.80395e-18)
(8.44318 -1.21055 -1.46884e-17)
(9.57888 -1.10312 7.8346e-18)
(9.11024 -1.413 0)
(7.59952 -1.24988 0)
(10.6212 -1.38253 2.18325e-18)
(8.30175 -1.09156 2.45819e-18)
(7.11918 -0.919247 0)
(4.73419 -0.599346 -1.87902e-18)
(9.36123 -0.460815 0)
(8.29079 -1.02538 0)
(7.4472 -0.978709 -1.1236e-18)
(9.0441 -0.156708 -3.08414e-17)
(9.05491 -0.175806 -6.88321e-18)
(6.95186 -1.18551 0)
(4.0522 -1.35475 1.74047e-18)
(7.17423 -0.282605 4.10801e-18)
(7.87334 -0.716992 9.60594e-18)
(7.09683 -0.919264 3.59564e-18)
(8.04414 -0.94462 0)
(7.40267 -0.323237 -3.57561e-18)
(5.03448 -1.0464 0)
(11.6171 0.00685795 4.74805e-18)
(8.8681 0.137142 3.867e-17)
(9.01104 -0.0288333 0)
(9.11503 -1.02885 1.66843e-17)
(8.99578 -0.0134036 3.09534e-17)
(7.50882 -0.278261 -2.36656e-18)
(8.43051 -0.372831 -3.32393e-17)
(8.50907 -0.458241 0)
(7.31727 -1.21907 -6.59754e-18)
(8.27763 -1.29748 0)
(6.60369 -1.14729 3.83606e-18)
(5.97364 -1.06914 0)
(8.1621 -1.02738 -2.91187e-18)
(7.41743 -1.24429 -3.64138e-18)
(7.14734 -0.0773397 -5.59289e-18)
(10.1375 -0.0569118 -1.2068e-16)
(7.03766 0.00941196 1.02683e-17)
(11.5799 -1.19748 6.80245e-18)
(9.6583 0.344667 -2.01278e-17)
(11.1609 -1.02117 9.47657e-19)
(9.50219 0.346105 8.97606e-18)
(7.85305 -1.29236 4.8774e-18)
(9.21972 0.422862 -1.08489e-17)
(8.32686 -0.945261 2.51466e-18)
(5.78093 -1.0225 1.43129e-18)
(3.90028 -0.689189 0)
(5.55875 -1.22959 5.83797e-18)
(7.24907 -1.21987 7.3865e-19)
(9.34239 -0.237954 0)
(8.56392 -0.24824 2.17949e-18)
(11.0271 -0.821877 4.41894e-18)
(10.9465 -0.951512 -8.58869e-18)
(7.63677 -1.2578 1.71091e-19)
(6.31068 -1.05647 -3.14403e-18)
(9.16894 -1.27813 -9.35042e-18)
(6.66294 3.93364 -1.01563e-17)
(4.2464 2.34877 3.35362e-17)
(9.31981 6.34861 -7.52472e-19)
(6.33931 -0.442734 8.48556e-18)
(6.14875 -0.516582 -4.04009e-18)
(7.51632 5.57918 1.75382e-18)
(5.44326 4.45879 -6.59717e-18)
(7.62431 -1.14435 -1.05361e-18)
(5.99837 1.5773 3.34251e-18)
(9.43024 -0.981496 3.72861e-18)
(8.62656 -0.0567503 0)
(9.10194 1.13841 6.10163e-18)
(9.11937 -0.892824 -2.2117e-17)
(5.97934 0.694236 -1.48315e-18)
(6.29255 0.674901 0)
(7.62529 -0.60704 6.30323e-18)
(7.62406 -0.524232 -1.08066e-17)
(10.4722 -1.26402 5.13095e-18)
(10.5022 -1.28292 -2.67617e-18)
(7.73452 -0.831397 -3.40221e-18)
(7.73541 -0.766793 7.09452e-18)
(5.70149 -0.944053 6.56113e-19)
(10.5964 -1.23567 -3.44694e-18)
(6.6649 -1.19071 -4.36312e-19)
(9.09358 5.25208 -6.51462e-18)
(16.088 3.44055 0)
(8.68767 4.79411 -3.46242e-20)
(7.55629 -0.462269 0)
(6.01294 2.41545 -6.72788e-18)
(9.03651 0.216841 0)
(9.01211 0.174841 0)
(4.27198 -0.861913 -9.83986e-19)
(7.97077 -0.999061 0)
(8.48697 -1.30924 0)
(8.13125 -0.994468 1.09331e-18)
(9.07965 -1.41433 -2.49253e-18)
(8.07765 -0.994025 2.50992e-18)
(9.63067 -1.25393 0)
(4.27664 -0.890154 -3.08047e-18)
(4.34439 -0.748846 0)
(7.95489 -0.434025 1.09597e-17)
(4.79799 -3.02592 1.58054e-17)
(8.15664 -1.27494 -1.36396e-18)
(7.98776 -1.37763 0)
(4.97372 -0.911047 -1.7985e-18)
(6.41251 -1.13951 -1.70302e-18)
(7.74967 -1.28302 4.0458e-18)
(6.10759 -1.06607 2.63444e-18)
(8.92023 0.603119 0)
(7.4588 -1.25587 0)
(5.28294 -1.26621 0)
(5.68735 -1.07702 -1.80189e-18)
(10.6195 -1.17476 -7.49274e-19)
(10.581 -1.11138 0)
(8.19518 3.85379 -3.23785e-20)
(5.07847 -0.89306 5.3376e-18)
(7.91251 -0.0106523 -1.32218e-17)
(3.5168 -2.05312 -3.02867e-17)
(9.04041 0.630112 -3.09421e-18)
(9.76757 -0.702692 -3.65909e-18)
(8.062 -1.03268 1.89934e-18)
(3.62788 -0.655398 -9.9847e-18)
(9.09414 0.767909 3.02625e-18)
(7.1525 -1.27365 5.8884e-18)
(7.98994 0.134135 -1.14814e-18)
(8.11431 -1.31512 -1.19369e-18)
(8.37038 -1.33104 -2.45924e-18)
(8.10783 -0.562366 8.00075e-18)
(8.55086 0.49376 1.144e-17)
(9.44558 0.00792757 0)
(5.37462 -0.921098 -9.97094e-18)
(5.26227 -0.807221 -8.00046e-18)
(9.65146 -0.788181 0)
(4.21395 -0.457235 8.64474e-18)
(8.35746 -1.34425 6.83403e-18)
(5.30742 -1.69186 -6.0205e-18)
(7.87164 -0.382769 4.44962e-19)
(7.92286 0.249138 2.08691e-17)
(12.0655 -1.23872 -1.06661e-18)
(11.8188 -1.31224 0)
(7.85674 -0.27966 -5.56768e-18)
(7.5071 -1.09197 2.32932e-18)
(4.93778 -0.830245 -1.7671e-18)
(7.20363 -0.936477 -6.14604e-18)
(9.8018 -1.29324 1.09567e-17)
(9.51791 -0.801038 -4.43948e-18)
(8.82675 -0.130259 0)
(7.46761 -1.23919 0)
(8.84937 -0.136785 0)
(7.75855 -0.234825 0)
(7.80636 -0.447895 9.18631e-18)
(7.54597 -0.135327 1.13117e-17)
(8.30038 -1.27861 -2.08639e-18)
(7.50206 -0.514591 0)
(8.33471 -1.204 -5.84341e-19)
(6.9803 -1.20023 8.59933e-19)
(7.9513 -0.910449 -2.98841e-18)
(12.3061 1.56968 0)
(7.92588 -1.25614 4.06914e-18)
(7.9951 -0.952696 0)
(12.5565 2.00545 2.89362e-17)
(8.98105 -1.35957 -1.49336e-18)
(3.60329 -0.610512 -9.48674e-19)
(7.3515 -1.27994 -2.79839e-18)
(8.28157 -0.505992 -4.56773e-18)
(11.0009 -0.513043 -1.00164e-17)
(8.54289 -1.29949 -3.0502e-18)
(8.39662 -1.31042 -1.41302e-18)
(6.29027 -0.217425 -1.05018e-17)
(6.42541 -0.273989 1.03206e-17)
(8.57012 1.2597 -6.07889e-20)
(10.941 -0.664217 1.02024e-17)
(8.04673 -1.38003 0)
(5.14771 -0.901885 3.05522e-18)
(7.23463 -1.21977 0)
(4.98215 -0.876107 0)
(9.20219 -1.43463 -2.16519e-18)
(8.09834 -0.695208 5.04434e-18)
(9.94714 -1.46937 0)
(7.59665 -1.38726 0)
(8.08662 -1.2496 0)
(8.06459 -1.24665 -1.00678e-19)
(8.78063 -0.270018 0)
(9.05103 -0.242559 1.85588e-17)
(8.65937 -0.161565 2.21047e-18)
(8.8419 -0.152993 0)
(7.44644 -0.488903 -9.12659e-19)
(9.01512 -1.31375 6.16682e-18)
(9.14424 -1.28733 0)
(8.57875 -0.352501 -3.39716e-18)
(9.62755 0.019753 -5.6929e-17)
(8.28091 -0.397068 2.79584e-18)
(8.29887 -0.624102 6.04437e-18)
(8.43168 -0.766642 -2.75662e-18)
(6.62897 -0.587932 5.61498e-18)
(6.84157 -0.607754 1.23335e-18)
(10.9044 -0.468808 1.51582e-17)
(9.43649 0.0215203 5.53059e-17)
(8.3038 -1.19302 0)
(7.3396 -0.989959 1.11361e-18)
(9.00262 -1.31052 -5.25627e-18)
(10.2653 -0.0143987 0)
(8.69833 -1.3163 0)
(7.58962 -1.10291 4.41545e-18)
(7.55461 -1.1317 0)
(7.67311 -1.05563 0)
(7.70989 -1.03113 1.6549e-18)
(10.8749 -0.303794 2.47653e-18)
(3.30959 -0.585609 4.71566e-18)
(10.3707 -0.90003 0)
(6.69868 -0.637785 -5.23444e-18)
(6.75704 -0.0976036 7.45053e-18)
(7.82379 -0.968724 -2.24924e-18)
(8.89909 0.10693 0)
(8.85842 0.101432 1.86299e-17)
(7.78519 -0.988989 2.75034e-18)
(9.78443 -1.37572 3.39074e-18)
(8.16415 1.75529 3.79208e-18)
(9.11573 -1.3023 1.0203e-17)
(9.39113 -0.304876 0)
(8.53853 -0.67542 -1.18127e-18)
(8.21903 -1.65289 1.69524e-17)
(5.5054 -1.14352 -2.59167e-17)
(8.50987 -0.82565 5.59302e-18)
(9.00618 -1.30888 -5.17756e-18)
(4.81783 -1.0713 -3.12176e-18)
(9.97505 -1.28431 -4.8056e-18)
(3.47684 -0.592802 2.18987e-18)
(8.53412 -1.38333 -7.51389e-18)
(8.23314 -1.29568 0)
(9.53111 -1.36074 0)
(7.51627 -0.605686 -2.91199e-18)
(9.32675 -0.375344 0)
(9.0325 0.0772558 -2.44147e-17)
(7.32113 -1.14308 0)
(8.30595 1.34005 -3.18586e-18)
(7.92772 -1.1957 0)
(7.87669 -1.19981 -3.99917e-19)
(7.96953 -1.15611 0)
(7.95637 -1.12985 0)
(7.27392 -1.2162 0)
(10.1113 -1.37707 -5.61058e-18)
(10.646 -1.4374 8.13297e-18)
(9.2078 -0.152979 -3.65983e-18)
(9.0633 -1.30338 0)
(7.27835 0.892966 5.17705e-18)
(8.84866 -1.40038 4.45243e-21)
(13.2384 -1.06411 2.16115e-17)
(6.7421 -1.12479 1.59294e-17)
(4.58587 -0.767079 -1.42439e-17)
(11.0541 -1.16927 3.17639e-18)
(9.14028 -0.148796 3.04403e-18)
(11.036 -1.05256 0)
(10.1267 -1.26052 1.05242e-18)
(8.58163 -0.00105038 8.96574e-18)
(9.12399 -0.174528 -2.0865e-17)
(11.4987 -1.37894 0)
(12.9151 -1.15677 3.24115e-18)
(14.7056 -0.975832 -2.24932e-17)
(11.2841 2.27725 -2.42635e-18)
(8.58802 -0.444143 0)
(9.10221 -0.0507996 0)
(9.93653 -0.0123077 6.73054e-19)
(9.58392 -0.00682759 1.05812e-18)
(10.853 -1.09685 6.83282e-18)
(8.88226 -0.0697906 0)
(10.0838 -1.07326 7.21519e-18)
(10.1174 -1.01143 0)
(7.80712 -1.0518 0)
(7.8463 -1.02623 0)
(6.58453 1.50138 1.75566e-17)
(9.76235 -0.932253 2.48185e-18)
(10.0438 -1.31597 -1.42315e-18)
(10.9828 -1.2042 0)
(8.58962 -1.33265 -2.20527e-18)
(10.9127 -1.16887 -3.6387e-18)
(10.1256 -1.21748 1.85367e-18)
(14.9403 -0.0405974 0)
(7.76178 -1.33004 -3.64006e-18)
(1.80966 0.224759 6.54088e-17)
(7.46263 -0.769127 1.72205e-18)
(7.49389 -0.721407 -6.82679e-18)
(7.41298 -0.775905 0)
(2.06017 0.934249 4.15212e-18)
(7.37402 -0.745333 0)
(8.36434 -0.786552 0)
(7.40663 -1.21506 1.61066e-18)
(6.9543 -1.14056 -1.76294e-18)
(6.59541 -1.13466 9.50005e-19)
(8.30937 1.94756 -2.83885e-18)
(10.0679 -1.23397 1.78951e-18)
(6.49549 0.0158541 6.08641e-18)
(8.22249 -0.443103 -2.02428e-17)
(7.67264 -0.97557 2.95347e-18)
(7.63362 -1.00953 0)
(9.13985 0.0346769 -2.2069e-17)
(7.74959 -0.922523 -5.08625e-18)
(7.78851 -0.900263 1.82616e-18)
(5.47839 -0.895321 0)
(6.90759 -0.306773 9.15512e-19)
(5.73353 -0.101058 2.51518e-17)
(8.35123 0.194902 0)
(10.2349 0.0584558 -1.47788e-17)
(2.84409 0.519675 -3.7107e-17)
(9.0337 0.0204481 1.83637e-17)
(9.06 0.030131 -4.12516e-17)
(8.82805 -0.015336 -3.23646e-17)
(6.98163 -0.233921 -1.60989e-18)
(7.63897 -0.758049 0)
(8.81367 0.00818682 0)
(8.06173 -0.282783 3.21543e-18)
(8.13682 -0.460368 2.05067e-17)
(7.68858 -0.72803 7.09546e-18)
(8.5107 -0.0072358 0)
(8.99639 0.0486231 3.45608e-17)
(8.97304 0.0618525 3.47736e-17)
(8.96782 0.037475 5.91373e-19)
(7.893 -1.28515 -3.27675e-18)
(10.3049 -1.18268 -2.68968e-19)
(8.28836 -0.0296183 1.16594e-17)
(9.72851 0.0717372 -1.35001e-17)
(8.96827 0.00181507 0)
(7.87777 -1.41096 0)
(8.75008 0.562168 9.50398e-18)
(8.05858 -0.374182 0)
(7.90036 -0.931252 1.87289e-18)
(5.50565 -1.02747 0)
(4.36327 -0.677947 -7.28381e-19)
(8.28368 -0.751309 3.68625e-18)
(4.51844 -0.914077 -1.6227e-18)
(7.89473 -0.970241 -4.56506e-18)
(8.15981 0.813307 1.57282e-18)
(6.7267 1.26786 1.06962e-17)
(8.84532 -0.0424736 -1.55439e-17)
(6.28809 0.988421 0)
(8.27278 -1.31602 1.11038e-18)
(7.19668 -0.803255 -1.42783e-18)
(8.88315 0.0153737 2.82313e-17)
(8.98813 0.012601 0)
(9.39246 -0.0300286 5.74541e-17)
(5.97271 0.9377 -9.95697e-18)
(5.91332 -1.05132 -3.18349e-20)
(8.79253 0.0533765 3.0976e-18)
(7.86197 -0.900744 -3.81996e-18)
(7.37727 -0.830256 0)
(6.43567 -1.10821 0)
(8.88292 -0.03575 7.39368e-19)
(8.81053 -0.0765949 -1.11277e-17)
(8.93579 0.0331438 -2.25878e-18)
(9.00008 -0.0478374 7.47204e-19)
(3.96208 -0.70611 -5.61118e-18)
(11.1744 -1.24965 4.44101e-19)
(8.87853 -0.0411882 -9.80347e-19)
(8.63048 -0.256487 0)
(8.66925 -0.157018 3.59645e-18)
(8.57619 -0.207059 0)
(8.64837 -0.328017 0)
(8.58465 -0.342433 0)
(5.00987 -0.87801 5.30982e-19)
(5.98557 -1.05072 1.27794e-18)
(9.18099 -0.0690399 0)
(6.51048 0.0270053 5.44909e-17)
(9.69473 -0.293247 -2.94929e-17)
(8.88216 0.11121 -1.28122e-17)
(8.87568 -0.0445589 -1.73081e-17)
(6.22174 -1.09899 -9.84679e-19)
(8.64336 -1.04876 0)
(9.85931 -0.0263009 -5.35985e-17)
(5.27894 0.209863 -1.5e-17)
(8.7286 -0.0907653 -8.17485e-18)
(8.67695 -0.0867847 9.36039e-18)
(8.86343 -0.0638591 7.23211e-18)
(8.98328 -0.0354208 7.26329e-18)
(8.87701 -0.0505077 -1.52985e-17)
(8.85354 -0.0393095 3.18975e-17)
(9.20298 -1.37488 -3.41496e-18)
(9.06498 0.0284122 -1.97291e-17)
(7.66535 -1.1572 -4.0151e-18)
(8.85686 -0.0352274 -6.512e-17)
(9.82114 -1.31679 1.27696e-18)
(10.1427 -0.815077 0)
(8.92631 0.125682 1.47315e-17)
(8.92913 0.129887 -3.15714e-18)
(8.86925 -1.32202 -2.41729e-20)
(10.1646 -0.878265 0)
(11.8148 0.335075 0)
(10.1445 0.110917 -6.93688e-17)
(9.23297 0.0210895 -1.9951e-17)
(9.63576 0.0625934 0)
(8.40324 0.144558 1.21643e-17)
(8.42363 -0.379042 0)
(9.14252 0.0419262 4.03385e-17)
(9.05625 0.083265 -6.74966e-17)
(9.19651 0.0779943 5.18508e-17)
(8.75399 -0.114182 3.93846e-19)
(8.81635 -0.0577615 -6.08369e-19)
(11.7631 0.0712621 -1.41226e-17)
(11.3006 -0.121017 -1.03075e-17)
(11.1567 -0.236533 1.01242e-17)
(11.1611 0.274539 -3.55429e-17)
(11.3664 0.123744 9.8208e-18)
(9.08534 0.0771937 2.89883e-17)
(9.0023 0.0549219 -3.63874e-17)
(8.86613 0.266128 0)
(8.81774 -0.419093 2.61531e-17)
(8.89901 0.0575852 2.16869e-17)
(8.86616 -0.465648 4.15643e-18)
(9.02632 -0.0887499 -2.75394e-17)
(9.03478 -0.0717702 2.54102e-17)
(9.68361 0.0577297 -1.35594e-17)
(8.37348 0.0476223 0)
(3.34375 -0.727317 -1.18042e-18)
(8.34937 0.699171 -1.27448e-17)
(8.53191 0.799733 8.11159e-18)
(9.08326 -0.055141 -2.37631e-17)
(9.02358 -0.0644376 0)
(8.99261 -0.112122 0)
(8.92599 -0.00853717 1.81411e-17)
(9.01951 -0.120917 3.46089e-19)
(11.9164 -0.103262 -3.26279e-18)
(11.7823 -0.127701 9.05843e-18)
(10.5111 0.0292053 -6.90601e-18)
(10.6462 -0.830976 -4.9942e-18)
(10.3787 -0.0407171 2.76403e-17)
(8.37233 -1.16657 2.45053e-19)
(10.0476 -0.29792 0)
(8.88561 0.0818113 1.39458e-19)
(9.68848 -0.0500818 2.16849e-17)
(9.36644 -0.00989781 -5.30909e-18)
(9.05798 -0.025098 -1.72805e-17)
(8.9263 0.061033 -2.07311e-17)
(10.0616 -0.0776743 5.41454e-18)
(9.93746 -0.0634262 -7.56541e-18)
(9.53094 -0.010424 0)
(9.64601 -0.0105558 5.35724e-18)
(9.42557 -0.0273391 -9.28096e-18)
(10.0152 0.113984 -6.83027e-18)
(9.94053 0.0553833 3.37423e-18)
(8.96231 0.0591314 5.40541e-17)
(7.76102 -0.0157256 0)
(7.44277 -1.24502 1.50113e-18)
(7.75643 -1.27024 0)
(8.04813 -1.2697 -9.64013e-19)
(7.53334 -1.25025 4.6575e-19)
(7.04196 -1.18406 -5.93008e-19)
(8.05812 -1.26506 1.07684e-19)
(9.98991 -0.124644 5.44367e-17)
(9.3664 -0.0803275 -5.34356e-17)
(10.1731 -0.0779679 -4.61533e-17)
(9.53347 -0.0580512 0)
(10.0643 -0.221672 4.68714e-17)
(8.72663 -0.365192 0)
(7.99198 -1.0257 0)
(8.85765 0.0444498 -1.6692e-17)
(7.10523 -1.25555 7.97471e-18)
(8.40842 0.318712 -4.58977e-18)
(10.059 -0.442704 0)
(7.3986 -0.407569 7.55366e-18)
(9.73308 0.0355387 3.31508e-18)
(6.6208 0.005275 0)
(8.62911 0.58306 -1.35193e-17)
(9.56787 -0.0748633 7.07786e-17)
(8.02284 -1.03933 3.03961e-18)
(7.39928 -0.570533 6.79745e-18)
(9.01051 0.00679684 3.84423e-17)
(8.45376 -0.67128 -1.56499e-18)
(6.91664 -0.145119 0)
(9.6765 0.0485395 3.09164e-18)
(6.61801 -0.00959553 0)
(7.57141 -1.15882 1.69431e-18)
(10.0537 0.0569558 -6.25552e-17)
(6.92269 0.120838 0)
(7.54474 -1.18175 2.2957e-18)
(8.39392 -0.608244 0)
(10.0725 -0.101071 -8.44088e-18)
(8.83053 0.624148 -7.72178e-19)
(8.79692 -0.0179103 2.51368e-17)
(6.71756 0.179114 -3.33249e-17)
(9.18591 -0.091702 0)
(6.43939 0.0135102 1.20388e-16)
(8.5668 -0.15236 -9.39033e-18)
(8.59698 -0.155356 0)
(7.18078 -0.712485 0)
(10.3013 -0.0722134 2.5621e-16)
(10.0619 -0.180733 -4.6353e-17)
(3.70491 -0.124148 -4.35616e-18)
(9.99993 0.14195 9.10983e-17)
(10.1749 0.314592 2.63783e-17)
(8.63539 -0.190289 0)
(5.96425 -1.01015 0)
(7.11137 -0.766967 0)
(5.06664 -0.868663 0)
(2.54456 -0.147127 0)
(8.19097 -1.33829 0)
(8.80982 -0.000164533 6.85877e-19)
(8.94248 0.0432573 0)
(8.98395 0.0283795 -1.93469e-17)
(8.93157 -0.0232614 -1.34279e-18)
(8.91066 -0.114093 0)
(8.515 0.323913 0)
(9.19067 0.0032867 2.04468e-17)
(8.90821 -0.0236652 2.29076e-17)
(9.92249 0.000120902 0)
(8.72203 -0.117572 6.60799e-18)
(8.97783 -0.0561285 1.75376e-18)
(10.4884 -0.971884 -1.70089e-18)
(10.1022 0.0333393 -5.64381e-18)
(9.4307 -0.027683 6.45254e-18)
(8.88715 0.0140389 3.06597e-17)
(10.1646 -0.580968 -7.69116e-18)
(10.5719 -0.946534 -5.38321e-18)
(10.0754 0.461909 -1.14349e-17)
(9.79613 -0.0612212 0)
(9.55998 -0.300809 -1.18855e-17)
(6.8233 -0.956058 2.57694e-18)
(8.97083 0.00176547 7.94354e-17)
(9.00835 0.0202123 -8.12817e-17)
(10.1357 -0.66175 -4.21773e-18)
(8.42461 -1.18786 -2.23362e-18)
(8.16219 -1.34349 1.04113e-20)
(10.1405 0.0410373 9.49064e-17)
(10.4048 -1.04556 2.88883e-18)
(6.42794 2.63947 2.75228e-18)
(6.8523 -0.842623 0)
(9.47914 -0.340879 -4.8968e-19)
(8.59877 -0.119072 0)
(8.63203 -0.118634 0)
(9.93261 0.57909 -1.67879e-17)
(8.33922 -1.25229 4.32492e-18)
(9.53195 -0.165112 -2.73488e-17)
(9.0239 0.174205 1.42381e-17)
(8.5653 -1.08102 -4.36241e-18)
(8.86794 -0.00943517 0)
(8.99379 0.000215625 -1.46034e-17)
(7.84506 -1.30484 -1.39767e-18)
(9.01944 0.194014 9.12662e-19)
(8.90428 0.0186744 0)
(9.22375 -1.21781 -6.5356e-18)
(7.30944 -0.666182 6.87681e-18)
(8.99895 0.134298 3.31557e-17)
(8.90098 0.015897 -2.24546e-17)
(9.71172 -1.22071 1.83039e-18)
(10.5781 -0.987854 3.5809e-18)
(8.91351 0.112367 0)
(8.48456 -1.33384 1.60414e-18)
(7.25254 0.194444 0)
(8.97411 0.129137 0)
(8.68192 -0.023757 6.32396e-18)
(6.68426 0.212212 0)
(8.70004 0.062325 -5.52532e-18)
(10.5275 1.45461 8.05952e-18)
(8.58882 -0.309612 3.5203e-18)
(7.91303 -1.28806 0)
(8.52479 -0.277789 8.3289e-18)
(8.66826 -0.205185 -1.22514e-17)
(8.32015 -1.3267 4.79386e-19)
(8.88212 -0.228115 -1.2517e-18)
(9.72929 -1.2724 0)
(4.82976 -0.878651 -2.28505e-18)
(8.8437 -1.35852 -9.51729e-19)
(10.4455 -0.392474 0)
(4.66819 -0.880591 -1.09377e-17)
(6.13499 -0.993094 6.753e-18)
(6.43078 -1.20142 -1.04614e-17)
(4.9411 -0.919597 0)
(11.1902 7.29544 1.33185e-17)
(9.46758 0.0897909 0)
(10.2216 -0.29636 0)
(9.26783 0.0407924 7.10824e-18)
(6.15778 -0.0201449 0)
(9.79863 -0.458325 6.05002e-17)
(4.40419 -0.690228 1.84369e-17)
(9.44596 -1.33127 -3.49499e-18)
(9.59279 -1.3062 0)
(8.8644 -0.0758281 -2.67844e-17)
(9.28078 0.0532449 -4.75327e-17)
(9.45835 -1.32416 1.11452e-18)
(6.76429 -0.943338 5.37326e-18)
(10.2608 -0.231781 1.33182e-17)
(10.1332 -0.170693 -1.91372e-17)
(9.05799 -1.30604 2.7108e-18)
(8.03465 -1.27813 1.77076e-18)
(9.91009 -1.07476 0)
(7.15992 -0.962052 2.31078e-18)
(7.07098 -0.984775 7.53349e-19)
(7.24355 0.0034887 1.31024e-17)
(5.68311 -0.368338 4.47295e-18)
(8.6361 -0.0271409 -6.51759e-18)
(6.97716 -1.01106 6.39997e-18)
(9.87654 0.161468 -1.08639e-16)
(9.12039 0.0699164 4.40756e-17)
(6.80168 -1.16333 8.68952e-18)
(7.98416 -1.30562 0)
(7.16782 -0.993532 0)
(6.62963 -1.13501 8.20744e-19)
(9.19112 -1.29348 -3.49188e-18)
(9.06955 0.0453157 2.30235e-17)
(8.03595 -1.29873 -1.5656e-18)
(9.06552 0.0417658 -5.16767e-17)
(8.9013 -0.0803048 2.05242e-17)
(9.86186 -1.03546 -1.5456e-17)
(8.3381 -1.31353 -1.58828e-18)
(7.99402 -1.29995 0)
(9.95145 -1.24468 0)
(10.0158 -1.20452 1.92497e-18)
(9.02314 -0.0543529 -3.56603e-17)
(9.92163 -1.28451 0)
(8.59864 -1.07994 2.02069e-18)
(8.89485 -0.0417146 -1.20534e-17)
(8.861 -0.032657 1.30422e-17)
(7.53454 5.96137 4.51599e-18)
(9.99549 -0.869124 0)
(9.93466 -1.0213 0)
(9.79835 -1.16112 0)
(10.0581 -0.803579 0)
(9.23359 -1.29268 0)
(8.81781 0.0746176 1.93736e-18)
(10.048 -0.734885 0)
(8.922 0.0997714 -5.25553e-18)
(8.94367 -1.19282 -2.16531e-18)
(3.27626 -0.374332 0)
(4.4698 -0.427918 -1.36987e-17)
(7.11435 -1.23084 0)
(8.98738 0.0292632 0)
(9.34267 0.0245697 0)
(3.34511 -0.582054 6.03387e-18)
(9.45074 0.0287799 -2.69922e-17)
(9.0018 -0.961385 -3.74682e-18)
(8.75137 -0.809687 1.17553e-18)
(11.9325 -0.399316 2.29522e-18)
(11.737 -0.488061 6.281e-18)
(7.11793 -1.20415 0)
(9.82751 -1.11931 0)
(9.37873 -0.919065 5.54585e-18)
(8.85508 0.0275543 0)
(8.95671 0.0267151 9.93372e-17)
(8.43294 -1.24549 0)
(7.0834 -0.977504 0)
(9.39407 -1.04694 0)
(5.79227 -0.979836 1.10595e-18)
(9.05655 -0.00409284 3.25963e-17)
(9.01706 -0.0211974 0)
(8.65813 -1.11063 -6.80775e-19)
(9.72769 -1.19081 4.74202e-18)
(9.00589 0.00351679 0)
(7.6428 -1.28528 1.88045e-18)
(12.0013 -0.806457 -5.05923e-18)
(8.50279 -1.28674 1.2017e-18)
(9.28587 -1.3161 1.75916e-18)
(8.77275 -1.12046 0)
(10.5046 -1.46107 0)
(5.31159 -0.934775 -3.3767e-18)
(9.02191 0.00483207 2.35097e-17)
(6.49895 0.826834 -5.71151e-19)
(6.97048 -0.96091 6.22547e-18)
(7.75392 -0.636428 7.48505e-18)
(7.75417 -0.576343 2.52955e-18)
(7.69249 -0.514701 5.67608e-18)
(11.7211 -0.687094 4.17413e-19)
(8.68334 0.359988 0)
(4.93688 -0.893777 0)
(9.22679 0.00680212 2.04818e-17)
(9.06885 0.0218957 -1.9258e-17)
(9.05901 0.0144506 0)
(9.27496 -0.0427033 2.81102e-17)
(9.31214 -0.050193 2.51219e-17)
(10.6223 -0.196928 0)
(3.4217 -0.604689 0)
(8.8698 -0.038441 -1.92695e-18)
(8.58601 0.389635 0)
(8.89843 -0.0504304 1.45517e-17)
(10.8851 -1.39346 0)
(8.45321 -1.33791 -9.59535e-19)
(9.88605 -0.033771 5.68556e-17)
(5.18359 -1.03825 -6.5938e-18)
(8.35431 -1.27837 -1.07411e-18)
(4.81391 -0.803093 1.91268e-18)
(9.42005 0.0534285 0)
(6.54076 4.71529 1.71754e-18)
(9.09652 -0.0258592 6.20504e-19)
(11.1527 0.882902 3.26166e-17)
(11.5848 0.752222 0)
(11.1256 -1.35116 2.35503e-18)
(11.639 0.457856 0)
(8.57136 -1.16826 3.57873e-18)
(7.75842 -1.12234 0)
(8.05739 -0.507753 2.56042e-19)
(10.5152 -1.12688 0)
(9.24139 -0.339912 0)
(8.56366 -1.19546 -2.70368e-18)
(8.10512 -1.25576 5.54145e-18)
(5.31308 -0.802103 -2.84696e-18)
(9.99 -1.34145 0)
(9.11873 -0.0500359 2.17693e-17)
(9.21581 -0.261536 2.63309e-17)
(4.78905 -0.86465 -7.46925e-18)
(8.12781 -0.461931 -5.08596e-18)
(7.51265 -1.25095 4.32752e-18)
(6.0285 -0.840617 1.04116e-17)
(7.57879 -1.20986 -4.53146e-18)
(7.12061 -0.392976 6.78276e-18)
(11.6125 -1.35922 -1.10023e-17)
(7.13098 -0.208577 -2.18075e-18)
(7.5077 -1.03326 -2.29817e-18)
(7.55265 -1.03017 1.92228e-18)
(7.48903 -0.995391 0)
(7.47358 -1.01793 3.33815e-20)
(11.1958 7.28561 0)
(10.183 4.21342 1.24483e-17)
(8.7728 -1.33964 0)
(6.66944 0.0342271 -5.77455e-17)
(8.53353 -1.31464 -7.15083e-18)
(8.66342 -0.251131 0)
(8.10549 -1.26693 4.32451e-20)
(8.72398 -0.267746 7.94701e-19)
(7.07465 0.00629645 -9.48322e-17)
(8.85619 -0.132075 -1.01954e-20)
(8.60497 0.0383854 1.44018e-17)
(8.65001 0.0278298 -2.13053e-17)
(8.80237 -0.167677 -9.42825e-18)
(8.81942 0.399271 -2.48022e-18)
(6.58352 -0.878369 -7.74896e-19)
(8.92342 -0.661252 6.68426e-19)
(9.584 0.0204268 0)
(8.39726 -1.2782 0)
(7.70044 -0.129352 -1.43909e-18)
(8.90329 0.427281 -8.13744e-19)
(6.4072 0.0175 0)
(3.9119 -0.52394 -4.36553e-18)
(11.2853 6.1635 -2.07662e-17)
(8.94088 0.479892 1.75632e-18)
(7.80792 -0.706636 6.68888e-18)
(8.22218 -0.478992 2.13247e-18)
(11.3528 -0.936774 0)
(7.33277 -0.164035 0)
(9.12294 -0.474652 -1.64379e-17)
(11.8056 -1.0446 0)
(6.06701 -0.541087 -3.72051e-18)
(10.4908 -0.887444 0)
(9.9207 -0.894794 0)
(9.17935 -0.371457 -2.86738e-18)
(10.0121 -0.956054 0)
(9.96654 -1.07002 -3.82108e-18)
(6.44953 -0.478943 1.3619e-18)
(6.65154 -0.401241 3.86051e-18)
(10.4878 -0.710399 0)
(10.5923 -0.81433 5.44778e-18)
(9.09507 0.54159 -1.83066e-17)
(10.5979 -0.73025 0)
(9.18977 0.525335 3.78193e-17)
(9.5855 0.184256 9.39637e-18)
(8.88529 0.0918241 -1.64108e-17)
(9.17106 -0.0103427 -4.75298e-19)
(9.13792 0.284285 -4.90974e-17)
(7.01571 0.0149788 -9.62475e-17)
(8.69784 -1.41625 0)
(6.49378 0.00621429 -8.0912e-17)
(9.03731 0.460705 4.12386e-18)
(10.1042 0.109388 1.59018e-17)
(9.77898 0.140658 3.00395e-17)
(9.51325 0.0234773 -2.69703e-17)
(10.0689 -0.0354238 -5.72344e-17)
(9.81501 0.201645 0)
(7.08345 -0.0959023 -2.58332e-16)
(9.78397 -0.191259 5.11025e-17)
(12.2774 0.143239 7.31884e-18)
(6.59001 0.0138095 0)
(8.89374 0.113677 -4.29176e-17)
(12.422 -0.283347 1.17171e-17)
(10.2737 -0.537786 -1.61306e-17)
(7.38712 -1.21606 -4.51606e-18)
(9.30768 0.392087 2.12394e-17)
(10.1024 6.5036 -2.76732e-18)
(9.29798 0.305027 -9.44332e-17)
(8.75494 -0.629914 -2.23468e-18)
(8.59497 -0.525355 1.16037e-17)
(7.44967 0.629173 -1.50266e-17)
(10.8487 6.64731 -8.61123e-18)
(8.55624 -0.721742 -4.35492e-18)
(6.58903 -0.224384 0)
(9.54535 0.116569 0)
(9.62383 -0.131756 -5.75482e-17)
(6.81618 0.248842 0)
(6.35243 -0.132833 1.43263e-16)
(8.89862 0.216008 -8.59213e-17)
(6.36425 0.0974436 0)
(8.92612 -0.210028 0)
(6.43431 -0.00322838 0)
(7.27639 -1.07749 1.30209e-18)
(8.78835 -1.32226 -3.68791e-18)
(9.07474 -0.0965756 -1.99087e-18)
(8.54827 -1.31744 0)
(10.2214 -1.0288 1.0752e-17)
(10.8287 -0.692733 -3.11476e-18)
(9.09173 -0.0575094 0)
(11.9403 -1.35514 4.45765e-18)
(7.32381 -1.15083 1.3461e-18)
(12.1878 -1.22018 1.10771e-18)
(4.00826 -0.592096 1.30394e-17)
(5.48889 -0.84845 8.81356e-18)
(7.40404 -1.05144 0)
(7.35848 -1.04951 -1.20396e-18)
(11.8348 -1.36127 -7.09898e-18)
(7.90963 -0.941218 0)
(8.8551 -0.0350426 3.81697e-17)
(8.89811 -0.0246622 -1.82519e-17)
(7.95401 -0.687599 7.74582e-18)
(8.86271 -0.0245034 0)
(10.2237 -1.47749 -3.48303e-18)
(8.97883 -1.42977 0)
(6.68161 -1.2291 1.90317e-19)
(7.89258 -0.645545 5.31159e-19)
(9.21155 -1.401 1.05776e-18)
(6.13682 0.354417 -5.27166e-18)
(6.47494 -1.22797 -2.63205e-18)
(6.59172 -0.0668546 9.32148e-17)
(6.50268 4.18199 -1.27234e-18)
(6.20049 0.192708 -4.9605e-18)
(9.4747 -0.701651 1.15952e-17)
(6.47614 0.16748 4.99211e-18)
(6.75765 0.30514 0)
(9.07085 0.179639 3.2331e-17)
(12.3661 -1.07923 1.87604e-18)
(8.25337 -1.14251 0)
(4.49744 -0.699293 0)
(8.75999 0.04079 7.92406e-18)
(8.67911 0.047408 -6.0243e-18)
(6.51887 -0.974917 -3.37887e-18)
(5.92642 -0.989003 -7.82605e-19)
(6.83186 1.16899 3.61043e-17)
(8.48074 0.744309 -1.77467e-17)
(8.27042 -1.17448 -1.2988e-18)
(7.49691 0.470794 1.45692e-17)
(7.3092 1.93987 -3.52748e-18)
(5.00415 -0.91201 0)
(6.89253 -0.993412 -7.58894e-18)
(4.92598 -0.916094 1.60311e-18)
(7.48179 2.20239 5.1872e-17)
(6.11859 -0.994423 -3.01377e-17)
(8.22196 -1.21995 1.48507e-18)
(7.58086 1.58417 1.99592e-17)
(4.05103 -0.648786 9.42754e-19)
(7.4971 0.125196 -2.56653e-17)
(9.0661 0.290742 0)
(8.61359 -1.01405 1.85757e-18)
(7.6681 0.132244 0)
(9.14931 0.255508 2.37461e-17)
(8.15449 -1.26921 -1.67027e-19)
(8.15494 -1.30733 1.41504e-18)
(7.48259 -0.659977 6.01938e-18)
(8.84482 -0.18153 2.57488e-18)
(8.18554 -1.2802 1.67784e-19)
(12.1061 -0.943801 6.05946e-18)
(9.00984 0.170144 2.52247e-17)
(9.76755 -1.01337 -2.27806e-18)
(7.85451 5.74364 0)
(5.80357 4.04494 1.49888e-18)
(8.08244 -1.30633 -1.62677e-18)
(10.7207 -1.02224 -2.5998e-18)
(7.8807 -0.577883 0)
(12.5088 -1.05462 8.22171e-20)
(10.6343 -1.03278 0)
(10.286 -0.704284 0)
(9.63791 -1.27201 1.02077e-20)
(9.56654 -1.29663 -3.34415e-18)
(7.66184 -0.815189 -4.28907e-18)
(12.6454 -0.877538 0)
(6.05777 -1.04123 -2.67018e-18)
(7.95693 -0.522549 0)
(12.7582 -1.18645 -4.95934e-18)
(9.58404 -0.110227 -1.41253e-17)
(10.2529 -1.04942 -5.6605e-18)
(12.8846 -0.848877 3.2967e-18)
(9.55959 0.633191 2.21546e-17)
(7.25725 -1.29712 4.85242e-19)
(6.58762 -1.11138 0)
(6.55487 -1.11278 -2.80018e-18)
(8.20795 -1.35562 3.96089e-18)
(8.61124 -0.780317 0)
(10.0071 -0.0229716 7.50224e-18)
(8.18305 -1.20689 -1.56317e-18)
(9.41368 0.469764 -1.49405e-17)
(9.41885 0.559677 -2.17059e-17)